#------------------------------------------------------------------------------
#$Date: 2021-11-06 22:10:47 +0200 (Sat, 06 Nov 2021) $
#$Revision: 270454 $
#$URL: file:///home/coder/svn-repositories/cod/cif/1/56/24/1562405.cif $
#------------------------------------------------------------------------------
#
# This file is available in the Crystallography Open Database (COD),
# http://www.crystallography.net/
#
# All data on this site have been placed in the public domain by the
# contributors.
#
data_1562405
loop_
_publ_author_name
'Ge, Meng'
'Yang, Taimin'
'Wang, Yanzhi'
'Carraro, Francesco'
'Liang, Weibin'
'Doonan, Christian'
'Falcaro, Paolo'
'Zheng, Haoquan'
'Zou, Xiaodong'
'Huang, Zhehao'
_publ_section_title
;
 On the completeness of three-dimensional electron diffraction data for
 structural analysis of metal-organic frameworks.
;
_journal_issue                   0
_journal_name_full               'Faraday discussions'
_journal_page_first              66
_journal_page_last               80
_journal_paper_doi               10.1039/d1fd00020a
_journal_volume                  231
_journal_year                    2021
_chemical_formula_sum            'C10 N5 O0.5 Zn1.5'
_chemical_formula_weight         296.23
_space_group_crystal_system      monoclinic
_space_group_IT_number           14
_space_group_name_Hall           '-P 2ybc'
_space_group_name_H-M_alt        'P 1 21/c 1'
_audit_creation_method           SHELXL-2018/3
_audit_update_record
;
2021-02-19 deposited with the CCDC.	2021-05-04 downloaded from the CCDC.
;
_cell_angle_alpha                90
_cell_angle_beta                 118.162(11)
_cell_angle_gamma                90
_cell_formula_units_Z            8
_cell_length_a                   13.6540(19)
_cell_length_b                   14.936(3)
_cell_length_c                   14.311(2)
_cell_measurement_reflns_used    3848
_cell_measurement_temperature    293(2)
_cell_measurement_theta_max      0.899
_cell_measurement_theta_min      0.014
_cell_volume                     2573.0(8)
_computing_structure_refinement  'SHELXL-2018/3 (Sheldrick, 2018)'
_computing_structure_solution    'SHELXT 2014/5 (Sheldrick, 2014)'
_diffrn_ambient_temperature      293(2)
_diffrn_measured_fraction_theta_full 0.772
_diffrn_measured_fraction_theta_max 0.759
_diffrn_measurement_device_type  'JEOL JEM-2100 LaB6'
_diffrn_measurement_method       'Continuous rotation electron diffraction'
_diffrn_radiation_type           electron
_diffrn_radiation_wavelength     0.0251
_diffrn_reflns_av_R_equivalents  0.1488
_diffrn_reflns_av_unetI/netI     0.1466
_diffrn_reflns_Laue_measured_fraction_full 0.772
_diffrn_reflns_Laue_measured_fraction_max 0.759
_diffrn_reflns_limit_h_max       16
_diffrn_reflns_limit_h_min       -16
_diffrn_reflns_limit_k_max       18
_diffrn_reflns_limit_k_min       -18
_diffrn_reflns_limit_l_max       17
_diffrn_reflns_limit_l_min       -17
_diffrn_reflns_number            14352
_diffrn_reflns_point_group_measured_fraction_full 0.772
_diffrn_reflns_point_group_measured_fraction_max 0.759
_diffrn_reflns_theta_full        0.863
_diffrn_reflns_theta_max         0.888
_diffrn_reflns_theta_min         0.075
_diffrn_source                   'electron microscope'
_exptl_absorpt_coefficient_mu    0.000
_exptl_crystal_colour            white
_exptl_crystal_density_diffrn    1.529
_exptl_crystal_description       nano-crystals
_exptl_crystal_F_000             370
_exptl_crystal_size_max          0.0005
_exptl_crystal_size_mid          0.0005
_exptl_crystal_size_min          0.0003
_refine_diff_density_max         0.270
_refine_diff_density_min         -0.148
_refine_diff_density_rms         0.051
_refine_ls_extinction_coef       1239(18)
_refine_ls_extinction_expression Fc^*^=kFc[1+0.001xFc^2^\l^3^/sin(2\q)]^-1/4^
_refine_ls_extinction_method     'SHELXL-2018/3 (Sheldrick 2018)'
_refine_ls_goodness_of_fit_ref   1.595
_refine_ls_hydrogen_treatment    undef
_refine_ls_matrix_type           full
_refine_ls_number_parameters     302
_refine_ls_number_reflns         3848
_refine_ls_number_restraints     333
_refine_ls_restrained_S_all      1.541
_refine_ls_R_factor_all          0.2041
_refine_ls_R_factor_gt           0.1780
_refine_ls_shift/su_max          0.057
_refine_ls_shift/su_mean         0.000
_refine_ls_structure_factor_coef Fsqd
_refine_ls_weighting_details
'w=1/[\s^2^(Fo^2^)+(0.2000P)^2^] where P=(Fo^2^+2Fc^2^)/3'
_refine_ls_weighting_scheme      calc
_refine_ls_wR_factor_gt          0.4564
_refine_ls_wR_factor_ref         0.4719
_reflns_Friedel_coverage         0.000
_reflns_number_gt                2845
_reflns_number_total             3848
_reflns_threshold_expression     'I > 2\s(I)'
_cod_data_source_file            d1fd00020a1.cif
_cod_data_source_block           M_A2
_cod_depositor_comments
'Adding full bibliography for 1562402--1562412.cif.'
_cod_original_sg_symbol_H-M      'P 21/c'
_cod_original_formula_sum        'C10 N5 O0.50 Zn1.50'
_cod_database_code               1562405
_shelx_shelxl_version_number     2018/3
_shelx_space_group_comment
;
The symmetry employed for this shelxl refinement is uniquely defined
by the following loop, which should always be used as a source of
symmetry information in preference to the above space-group names.
They are only intended as comments.
;
_shelx_res_file
;
TITL 14m_a.res in P2(1)/c
    3.res
    created by SHELXL-2018/3 at 10:10:14 on 19-Feb-2021
REM Old TITL 14m in P2(1)/c

REM SHELXT solution in P2(1)/c
REM R1 0.238,  Rweak 0.111,  Alpha 0.110,  Orientation as input
REM Formula found by SHELXT:  C27 N4 Cl3

CELL  0.02510   13.654    14.936    14.311  90.000 118.162  90.000
ZERR   8.000    0.0019   0.0032   0.0024    0.000    0.011    0.000
LATT  1
SYMM -X, 1/2+Y, 1/2-Z
SFAC C  0.73070  36.99510   1.19510  11.29660   0.45630   2.81390 =
        0.12470   0.34560   0.00000   0.000   0.000   0.000   0.770  12.011
SFAC N  0.57170  28.84650   1.04250   9.05420   0.46470   2.42130 =
        0.13110   0.31670   0.00000   0.000   0.000   0.000   0.750  14.007
SFAC ZN 1.94180  54.16210   1.95010  12.51770   1.61920   2.41640 =
        0.54340   0.32950   0.00000   0.000   0.000   0.000   1.250  65.390
SFAC O  0.45480  23.78030   0.91730   7.62200   0.47190   2.14400 =
        0.13840   0.29590   0.00000   0.000   0.000   0.000   0.730  15.999
UNIT 80 40 12 4

L.S. 200
BOND $H
LIST 3
FMAP 2
PLAN 20
ACTA
DFIX  1.49  C3  C7  C5  C20  C1  C15  C2  C6  C4  C19
DFIX  1.343  C3  N10  C3  N9  C1  N7  C1  N8  C5  N5
DFIX  1.343  C5  N6  C2  N3  C2  N4  C4  N2  C4  N1
DFIX  1.37  N10  C14  N9  C12  N8  C11  N7  C13  N5  C9
DFIX  1.37  N6  C8  N3  C18  N4  C17  N2  C10  N1  C16
DFIX  1.35  C14  C12  C13  C11  C9  C8  C17  C18  C10  C16

FLAT  C7  C3  N9  C12  C14  N10
FLAT  C20  C5  N5  C9  C8  N6
FLAT  C15  C1  N7  C13  C11  N8
FLAT  C6  C2  N4  C17  C18  N3
FLAT  C19  C4  N1  C16  C10  N2
rem SHEL 999 0.9
RIGU
EADP C20 C5

WGHT    0.200000
EXTI 1238.840332
FVAR      18.49949
ZN1   3    0.283687    0.371480    0.759355    11.00000    0.04654    0.04418 =
         0.03669    0.00062    0.01815    0.00337
ZN2   3    0.123681    0.647517    0.976372    11.00000    0.05389    0.05812 =
         0.04053   -0.00228    0.02112    0.00947
ZN3   3    0.300063    0.657658    0.456901    11.00000    0.04602    0.05774 =
         0.04149    0.00330    0.02004   -0.00604
N1    2    0.197243    0.613311    0.132644    11.00000    0.04847    0.05870 =
         0.04581    0.00024    0.01876    0.01034
N2    2    0.256007    0.614320    0.307807    11.00000    0.07258    0.05266 =
         0.04294   -0.00210    0.02865   -0.00582
N3    2    0.333881    0.550543    0.558120    11.00000    0.06051    0.06554 =
         0.05770    0.01302    0.02994    0.00472
N4    2    0.337448    0.455388    0.678858    11.00000    0.06175    0.05667 =
         0.05314    0.02048    0.02720    0.00769
N5    2    0.409558    0.311460    0.889086    11.00000    0.06041    0.05169 =
         0.04100    0.00000    0.02753    0.01420
N6    2    0.553116    0.226761    0.985944    11.00000    0.07236    0.07363 =
         0.04093    0.01406    0.03003    0.02530
N7    2    0.184199    0.275552    0.656107    11.00000    0.07279    0.06357 =
         0.04962   -0.01326    0.03644   -0.01865
N8    2    0.040296    0.182095    0.573943    11.00000    0.07608    0.04843 =
         0.04416   -0.00518    0.03354   -0.00668
N9    2    0.188148    0.445680    0.805951    11.00000    0.05090    0.05025 =
         0.05475   -0.01026    0.02323    0.00049
N10   2    0.130764    0.545946    0.888470    11.00000    0.05758    0.06465 =
         0.05364   -0.00422    0.03153    0.01269
O1    4    0.182040    0.733884    0.455614    11.00000    0.07842    0.07709 =
         0.06237    0.00076    0.03770    0.00566
C1    1    0.108926    0.221574    0.666497    11.00000    0.07661    0.04990 =
         0.05816   -0.01455    0.04031   -0.01521
C2    1    0.272640    0.504026    0.591066    11.00000    0.05330    0.07264 =
         0.05258    0.02003    0.02361    0.00462
C3    1    0.216027    0.509002    0.879159    11.00000    0.04406    0.04859 =
         0.04368   -0.01138    0.01199    0.00381
C4    1    0.215736    0.665515    0.216936    11.00000    0.06719    0.05365 =
         0.04528    0.00830    0.03069    0.00937
C5    1    0.492216    0.263939    0.890312    11.00000    0.07534    0.09610 =
         0.04097    0.01705    0.03070    0.04103
C6    1    0.147727    0.508039    0.536268    11.00000    0.05535    0.08934 =
         0.10402    0.04042    0.02433    0.00676
C7    1    0.333544    0.540655    0.946738    11.00000    0.04075    0.07201 =
         0.11378   -0.02787    0.01615   -0.00823
C8    1    0.503958    0.250551    1.045882    11.00000    0.06382    0.07292 =
         0.03292    0.00817    0.02460    0.01117
C9    1    0.411176    0.302084    0.984485    11.00000    0.06241    0.07895 =
         0.05169    0.01102    0.03364    0.02079
C10   1    0.261465    0.526236    0.278195    11.00000    0.06797    0.05320 =
         0.05120    0.00066    0.02564    0.00953
C11   1    0.078148    0.204646    0.504040    11.00000    0.08965    0.09091 =
         0.04835   -0.01347    0.03920   -0.03232
C12   1    0.074434    0.439078    0.762347    11.00000    0.04637    0.05746 =
         0.05300   -0.01159    0.01223   -0.00208
C13   1    0.166235    0.262652    0.554623    11.00000    0.06322    0.08310 =
         0.05099   -0.00963    0.03352   -0.01476
C14   1    0.038474    0.499671    0.813526    11.00000    0.06169    0.06675 =
         0.06857   -0.00748    0.03040    0.00122
C15   1    0.105604    0.211669    0.769291    11.00000    0.08188    0.07791 =
         0.04872    0.00496    0.03234   -0.01132
C16   1    0.224631    0.526206    0.168772    11.00000    0.09606    0.06027 =
         0.04103   -0.00895    0.02062    0.00813
C17   1    0.446583    0.470879    0.704725    11.00000    0.05701    0.06209 =
         0.08034    0.01998    0.01638   -0.00903
C18   1    0.443084    0.529129    0.627221    11.00000    0.05794    0.08926 =
         0.08850    0.03003    0.02939   -0.00035
C19   1    0.197844    0.764082    0.212589    11.00000    0.16887    0.05454 =
         0.07909    0.01557    0.08405    0.03467
C20   1    0.518513    0.250035    0.800530    11.00000    0.07534    0.09610 =
         0.04097    0.01705    0.03070    0.04103
HKLF 4




REM  14m_a.res in P2(1)/c
REM wR2 = 0.4719, GooF = S = 1.595, Restrained GooF = 1.541 for all data
REM R1 = 0.1780 for 2845 Fo > 4sig(Fo) and 0.2041 for all 3848 data
REM 302 parameters refined using 333 restraints

END

WGHT      0.1876      1.0878

REM Highest difference peak  0.270,  deepest hole -0.148,  1-sigma level  0.051
Q1    1   0.1984  0.3621  0.7276  11.00000  0.05    0.27
Q2    1   0.1738  0.6671  1.0262  11.00000  0.05    0.25
Q3    1   0.3215  0.3633  0.8043  11.00000  0.05    0.25
Q4    1   0.3854  0.6591  0.5115  11.00000  0.05    0.22
Q5    1   0.0632  0.6681  0.9580  11.00000  0.05    0.19
Q6    1   0.5247  0.5575  0.6207  11.00000  0.05    0.18
Q7    1   0.2222  0.6789  0.4289  11.00000  0.05    0.18
Q8    1   0.1579  0.2636  0.8352  11.00000  0.05    0.16
Q9    1   0.4676  0.2934  0.7391  11.00000  0.05    0.16
Q10   1   0.3247  0.6988  0.4844  11.00000  0.05    0.15
Q11   1   0.3193  0.6266  0.4862  11.00000  0.05    0.15
Q12   1   0.0332  0.1847  0.7615  11.00000  0.05    0.15
Q13   1   0.2264  0.5596  0.9271  11.00000  0.05    0.14
Q14   1   0.2841  0.4692  0.3320  11.00000  0.05    0.13
Q15   1   0.5303  0.1891  0.7769  11.00000  0.05    0.13
Q16   1   0.1166  0.5179  0.8512  11.00000  0.05    0.13
Q17   1   0.4312  0.2998  0.8454  11.00000  0.05    0.13
Q18   1   0.1312  0.7013  0.4842  11.00000  0.05    0.13
Q19   1   0.0611  0.2457  0.6254  11.00000  0.05    0.13
Q20   1   0.1412  0.2538  0.7069  11.00000  0.05    0.13
;
_shelx_res_checksum              8859
loop_
_space_group_symop_operation_xyz
'x, y, z'
'-x, y+1/2, -z+1/2'
'-x, -y, -z'
'x, -y-1/2, z-1/2'
loop_
_atom_site_label
_atom_site_type_symbol
_atom_site_fract_x
_atom_site_fract_y
_atom_site_fract_z
_atom_site_U_iso_or_equiv
_atom_site_adp_type
_atom_site_occupancy
_atom_site_site_symmetry_order
_atom_site_calc_flag
_atom_site_refinement_flags_posn
_atom_site_refinement_flags_adp
_atom_site_refinement_flags_occupancy
_atom_site_disorder_assembly
_atom_site_disorder_group
Zn1 Zn 0.2837(4) 0.37148(19) 0.7594(2) 0.0431(10) Uani 1 1 d . . . . .
Zn2 Zn 0.1237(4) 0.6475(2) 0.9764(3) 0.0513(12) Uani 1 1 d . . . . .
Zn3 Zn 0.3001(4) 0.6577(2) 0.4569(3) 0.0487(11) Uani 1 1 d . . . . .
N1 N 0.1972(11) 0.6133(6) 0.1326(7) 0.052(3) Uani 1 1 d D . . . .
N2 N 0.2560(11) 0.6143(5) 0.3078(7) 0.055(3) Uani 1 1 d D . . . .
N3 N 0.3339(11) 0.5505(7) 0.5581(8) 0.060(3) Uani 1 1 d D . . . .
N4 N 0.3374(11) 0.4554(6) 0.6789(7) 0.057(3) Uani 1 1 d D . . . .
N5 N 0.4096(10) 0.3115(5) 0.8891(7) 0.050(3) Uani 1 1 d D . . . .
N6 N 0.5531(11) 0.2268(7) 0.9859(7) 0.061(3) Uani 1 1 d D . . . .
N7 N 0.1842(11) 0.2756(6) 0.6561(8) 0.059(3) Uani 1 1 d D . . . .
N8 N 0.0403(10) 0.1821(5) 0.5739(7) 0.054(3) Uani 1 1 d D . . . .
N9 N 0.1881(11) 0.4457(5) 0.8060(8) 0.053(2) Uani 1 1 d D . . . .
N10 N 0.1308(10) 0.5459(6) 0.8885(8) 0.056(3) Uani 1 1 d D . . . .
O1 O 0.1820(13) 0.7339(7) 0.4556(9) 0.071(4) Uani 1 1 d . . . . .
C1 C 0.1089(10) 0.2216(6) 0.6665(7) 0.058(3) Uani 1 1 d D . . . .
C2 C 0.2726(11) 0.5040(6) 0.5911(8) 0.060(3) Uani 1 1 d D . . . .
C3 C 0.2160(10) 0.5090(5) 0.8792(7) 0.049(3) Uani 1 1 d D . . . .
C4 C 0.2157(9) 0.6655(6) 0.2169(7) 0.054(4) Uani 1 1 d D . . . .
C5 C 0.4922(10) 0.2639(7) 0.8903(7) 0.069(3) Uani 1 1 d D . . . .
C6 C 0.1477(14) 0.5080(9) 0.5363(12) 0.088(4) Uani 1 1 d D . . . .
C7 C 0.3335(14) 0.5407(9) 0.9467(11) 0.084(4) Uani 1 1 d D . . . .
C8 C 0.5040(11) 0.2506(7) 1.0459(8) 0.056(3) Uani 1 1 d D . . . .
C9 C 0.4112(12) 0.3021(8) 0.9845(8) 0.062(4) Uani 1 1 d D . . . .
C10 C 0.2615(12) 0.5262(6) 0.2782(8) 0.058(4) Uani 1 1 d D . . . .
C11 C 0.0781(13) 0.2046(9) 0.5040(9) 0.074(4) Uani 1 1 d D . . . .
C12 C 0.0744(12) 0.4391(7) 0.7623(9) 0.057(3) Uani 1 1 d D . . . .
C13 C 0.1662(12) 0.2627(8) 0.5546(8) 0.063(4) Uani 1 1 d D . . . .
C14 C 0.0385(13) 0.4997(7) 0.8135(10) 0.066(3) Uani 1 1 d D . . . .
C15 C 0.1056(14) 0.2117(8) 0.7693(9) 0.069(5) Uani 1 1 d D . . . .
C16 C 0.2246(14) 0.5262(7) 0.1688(8) 0.071(5) Uani 1 1 d D . . . .
C17 C 0.4466(13) 0.4709(8) 0.7047(10) 0.073(4) Uani 1 1 d D . . . .
C18 C 0.4431(14) 0.5291(9) 0.6272(11) 0.081(4) Uani 1 1 d D . . . .
C19 C 0.1978(15) 0.7641(7) 0.2126(10) 0.090(7) Uani 1 1 d D . . . .
C20 C 0.5185(14) 0.2500(8) 0.8005(9) 0.069(3) Uani 1 1 d D . . . .
loop_
_atom_site_aniso_label
_atom_site_aniso_U_11
_atom_site_aniso_U_22
_atom_site_aniso_U_33
_atom_site_aniso_U_23
_atom_site_aniso_U_13
_atom_site_aniso_U_12
Zn1 0.047(3) 0.0442(14) 0.0367(14) 0.0006(11) 0.0181(17) 0.0034(14)
Zn2 0.054(4) 0.0581(17) 0.0405(16) -0.0023(13) 0.021(2) 0.0095(17)
Zn3 0.046(3) 0.0577(17) 0.0415(16) 0.0033(13) 0.0200(19) -0.0060(16)
N1 0.048(10) 0.059(4) 0.046(4) 0.000(3) 0.019(6) 0.010(5)
N2 0.073(11) 0.053(4) 0.043(4) -0.002(3) 0.029(6) -0.006(5)
N3 0.061(9) 0.066(5) 0.058(5) 0.013(4) 0.030(6) 0.005(5)
N4 0.062(8) 0.057(5) 0.053(5) 0.020(4) 0.027(6) 0.008(5)
N5 0.060(8) 0.052(4) 0.041(4) 0.000(3) 0.028(5) 0.014(5)
N6 0.072(10) 0.074(6) 0.041(4) 0.014(4) 0.030(6) 0.025(6)
N7 0.073(10) 0.064(5) 0.050(5) -0.013(4) 0.036(6) -0.019(5)
N8 0.076(9) 0.048(4) 0.044(4) -0.005(3) 0.034(5) -0.007(5)
N9 0.051(7) 0.050(4) 0.055(5) -0.010(4) 0.023(5) 0.000(4)
N10 0.058(9) 0.065(5) 0.054(5) -0.004(4) 0.032(6) 0.013(5)
O1 0.078(12) 0.077(6) 0.062(6) 0.001(5) 0.038(7) 0.006(6)
C1 0.077(10) 0.050(5) 0.058(5) -0.015(4) 0.040(6) -0.015(5)
C2 0.053(8) 0.073(6) 0.053(6) 0.020(5) 0.024(6) 0.005(6)
C3 0.044(8) 0.049(5) 0.044(5) -0.011(4) 0.012(5) 0.004(4)
C4 0.067(13) 0.054(4) 0.045(5) 0.008(4) 0.031(7) 0.009(5)
C5 0.075(10) 0.096(6) 0.041(4) 0.017(4) 0.031(6) 0.041(6)
C6 0.055(9) 0.089(9) 0.104(11) 0.040(8) 0.024(8) 0.007(8)
C7 0.041(10) 0.072(7) 0.114(11) -0.028(7) 0.016(8) -0.008(7)
C8 0.064(11) 0.073(6) 0.033(5) 0.008(4) 0.025(6) 0.011(6)
C9 0.062(11) 0.079(7) 0.052(6) 0.011(5) 0.034(7) 0.021(7)
C10 0.068(13) 0.053(5) 0.051(5) 0.001(4) 0.026(7) 0.010(6)
C11 0.090(13) 0.091(8) 0.048(6) -0.013(5) 0.039(7) -0.032(7)
C12 0.046(8) 0.057(5) 0.053(6) -0.012(4) 0.012(6) -0.002(5)
C13 0.063(12) 0.083(7) 0.051(6) -0.010(5) 0.034(7) -0.015(6)
C14 0.062(9) 0.067(6) 0.069(7) -0.007(5) 0.030(6) 0.001(6)
C15 0.082(15) 0.078(7) 0.049(6) 0.005(5) 0.032(8) -0.011(7)
C16 0.096(16) 0.060(5) 0.041(5) -0.009(4) 0.021(7) 0.008(6)
C17 0.057(9) 0.062(6) 0.080(8) 0.020(6) 0.016(7) -0.009(7)
C18 0.058(9) 0.089(8) 0.089(9) 0.030(7) 0.029(7) 0.000(8)
C19 0.17(2) 0.055(5) 0.079(9) 0.016(5) 0.084(13) 0.035(8)
C20 0.075(10) 0.096(6) 0.041(4) 0.017(4) 0.031(6) 0.041(6)
loop_
_atom_type_symbol
_atom_type_description
_atom_type_scat_dispersion_real
_atom_type_scat_dispersion_imag
_atom_type_scat_source
C C 0.0000 0.0000 'International Tables Vol C Tables 4.2.6.8 and 6.1.1.4'
N N 0.0000 0.0000 'International Tables Vol C Tables 4.2.6.8 and 6.1.1.4'
Zn Zn 0.0000 0.0000 'International Tables Vol C Tables 4.2.6.8 and 6.1.1.4'
O O 0.0000 0.0000 'International Tables Vol C Tables 4.2.6.8 and 6.1.1.4'
loop_
_geom_angle_atom_site_label_1
_geom_angle_atom_site_label_2
_geom_angle_atom_site_label_3
_geom_angle
_geom_angle_site_symmetry_1
_geom_angle_site_symmetry_3
_geom_angle_publ_flag
N7 Zn1 N9 107.8(5) . . ?
N7 Zn1 N4 108.2(4) . . ?
N9 Zn1 N4 107.6(4) . . ?
N7 Zn1 N5 109.6(4) . . ?
N9 Zn1 N5 109.4(4) . . ?
N4 Zn1 N5 113.9(5) . . ?
N10 Zn2 O1 115.6(4) . 4_576 ?
N10 Zn2 N1 110.8(4) . 1_556 ?
O1 Zn2 N1 110.9(5) 4_576 1_556 ?
N10 Zn2 N8 109.6(5) . 2_556 ?
O1 Zn2 N8 99.6(5) 4_576 2_556 ?
N1 Zn2 N8 109.7(4) 1_556 2_556 ?
O1 Zn3 N2 109.9(5) . . ?
O1 Zn3 N6 110.8(5) . 2_656 ?
N2 Zn3 N6 109.2(4) . 2_656 ?
O1 Zn3 N3 111.5(4) . . ?
N2 Zn3 N3 110.4(4) . . ?
N6 Zn3 N3 105.0(5) 2_656 . ?
C4 N1 C16 107.7(8) . . ?
C4 N1 Zn2 128.4(7) . 1_554 ?
C16 N1 Zn2 123.5(7) . 1_554 ?
C4 N2 C10 106.9(7) . . ?
C4 N2 Zn3 127.1(6) . . ?
C10 N2 Zn3 126.0(7) . . ?
C2 N3 C18 105.7(10) . . ?
C2 N3 Zn3 133.2(10) . . ?
C18 N3 Zn3 119.4(8) . . ?
C2 N4 C17 108.0(9) . . ?
C2 N4 Zn1 126.6(10) . . ?
C17 N4 Zn1 125.4(7) . . ?
C5 N5 C9 108.7(9) . . ?
C5 N5 Zn1 126.2(6) . . ?
C9 N5 Zn1 124.3(8) . . ?
C5 N6 C8 106.4(10) . . ?
C5 N6 Zn3 129.3(7) . 2_646 ?
C8 N6 Zn3 124.0(7) . 2_646 ?
C13 N7 C1 105.4(9) . . ?
C13 N7 Zn1 126.2(7) . . ?
C1 N7 Zn1 127.6(6) . . ?
C1 N8 C11 106.5(10) . . ?
C1 N8 Zn2 126.1(7) . 2_546 ?
C11 N8 Zn2 121.9(9) . 2_546 ?
C3 N9 C12 104.5(9) . . ?
C3 N9 Zn1 130.8(10) . . ?
C12 N9 Zn1 124.7(7) . . ?
C3 N10 C14 103.3(9) . . ?
C3 N10 Zn2 132.2(9) . . ?
C14 N10 Zn2 124.4(8) . . ?
Zn3 O1 Zn2 152.2(8) . 4_575 ?
N8 C1 N7 111.2(8) . . ?
N8 C1 C15 126.4(10) . . ?
N7 C1 C15 122.4(9) . . ?
N3 C2 N4 111.3(12) . . ?
N3 C2 C6 122.7(10) . . ?
N4 C2 C6 126.0(10) . . ?
N9 C3 N10 115.4(11) . . ?
N9 C3 C7 123.5(10) . . ?
N10 C3 C7 121.0(10) . . ?
N1 C4 N2 110.1(8) . . ?
N1 C4 C19 125.0(8) . . ?
N2 C4 C19 124.9(8) . . ?
N5 C5 N6 110.4(8) . . ?
N5 C5 C20 127.4(9) . . ?
N6 C5 C20 122.1(10) . . ?
N6 C8 C9 108.7(8) . . ?
N5 C9 C8 105.7(9) . . ?
C16 C10 N2 107.3(8) . . ?
N8 C11 C13 107.9(9) . . ?
N9 C12 C14 108.5(10) . . ?
N7 C13 C11 108.7(9) . . ?
N10 C14 C12 108.2(11) . . ?
N1 C16 C10 108.0(8) . . ?
C18 C17 N4 105.4(12) . . ?
C17 C18 N3 109.5(12) . . ?
loop_
_geom_bond_atom_site_label_1
_geom_bond_atom_site_label_2
_geom_bond_distance
_geom_bond_site_symmetry_2
_geom_bond_publ_flag
Zn1 N7 2.046(10) . ?
Zn1 N9 2.048(10) . ?
Zn1 N4 2.058(9) . ?
Zn1 N5 2.048(11) . ?
Zn2 N10 2.002(9) . ?
Zn2 O1 2.021(11) 4_576 ?
Zn2 N1 2.037(10) 1_556 ?
Zn2 N8 2.068(13) 2_556 ?
Zn3 O1 1.966(13) . ?
Zn3 N2 2.030(9) . ?
Zn3 N6 2.051(12) 2_656 ?
Zn3 N3 2.059(10) . ?
N1 C4 1.356(11) . ?
N1 C16 1.385(12) . ?
N2 C4 1.380(11) . ?
N2 C10 1.395(11) . ?
N3 C2 1.333(13) . ?
N3 C18 1.383(15) . ?
N4 C2 1.356(13) . ?
N4 C17 1.375(14) . ?
N5 C5 1.326(12) . ?
N5 C9 1.362(10) . ?
N6 C5 1.341(12) . ?
N6 C8 1.362(11) . ?
N7 C13 1.368(11) . ?
N7 C1 1.368(12) . ?
N8 C1 1.345(12) . ?
N8 C11 1.367(11) . ?
N9 C3 1.327(11) . ?
N9 C12 1.377(14) . ?
N10 C3 1.351(13) . ?
N10 C14 1.393(14) . ?
C1 C15 1.500(11) . ?
C2 C6 1.505(15) . ?
C3 C7 1.506(15) . ?
C4 C19 1.489(12) . ?
C5 C20 1.503(11) . ?
C8 C9 1.385(14) . ?
C10 C16 1.401(12) . ?
C11 C13 1.378(14) . ?
C12 C14 1.391(12) . ?
C17 C18 1.393(12) . ?
