#------------------------------------------------------------------------------
#$Date: 2021-11-06 22:10:47 +0200 (Sat, 06 Nov 2021) $
#$Revision: 270454 $
#$URL: file:///home/coder/svn-repositories/cod/cif/1/56/24/1562403.cif $
#------------------------------------------------------------------------------
#
# This file is available in the Crystallography Open Database (COD),
# http://www.crystallography.net/
#
# All data on this site have been placed in the public domain by the
# contributors.
#
data_1562403
loop_
_publ_author_name
'Ge, Meng'
'Yang, Taimin'
'Wang, Yanzhi'
'Carraro, Francesco'
'Liang, Weibin'
'Doonan, Christian'
'Falcaro, Paolo'
'Zheng, Haoquan'
'Zou, Xiaodong'
'Huang, Zhehao'
_publ_section_title
;
 On the completeness of three-dimensional electron diffraction data for
 structural analysis of metal-organic frameworks.
;
_journal_issue                   0
_journal_name_full               'Faraday discussions'
_journal_page_first              66
_journal_page_last               80
_journal_paper_doi               10.1039/d1fd00020a
_journal_volume                  231
_journal_year                    2021
_chemical_formula_sum            'C10 N5 O0.5 Zn1.5'
_chemical_formula_weight         296.23
_space_group_crystal_system      monoclinic
_space_group_IT_number           14
_space_group_name_Hall           '-P 2ybc'
_space_group_name_H-M_alt        'P 1 21/c 1'
_audit_creation_method           SHELXL-2018/3
_audit_update_record
;
2021-02-19 deposited with the CCDC.	2021-05-04 downloaded from the CCDC.
;
_cell_angle_alpha                90
_cell_angle_beta                 118.162(11)
_cell_angle_gamma                90
_cell_formula_units_Z            8
_cell_length_a                   13.6540(19)
_cell_length_b                   14.936(3)
_cell_length_c                   14.311(2)
_cell_measurement_reflns_used    3132
_cell_measurement_temperature    293(2)
_cell_measurement_theta_max      0.899
_cell_measurement_theta_min      0.014
_cell_volume                     2573.0(8)
_computing_structure_refinement  'SHELXL-2018/3 (Sheldrick, 2018)'
_computing_structure_solution    'SHELXT 2014/5 (Sheldrick, 2014)'
_diffrn_ambient_temperature      293(2)
_diffrn_measured_fraction_theta_full 0.537
_diffrn_measured_fraction_theta_max 0.530
_diffrn_measurement_device_type  'JEOL JEM-2100 LaB6'
_diffrn_measurement_method       'Continuous rotation electron diffraction'
_diffrn_radiation_type           electron
_diffrn_radiation_wavelength     0.0251
_diffrn_reflns_av_R_equivalents  0.0886
_diffrn_reflns_av_unetI/netI     0.1100
_diffrn_reflns_Laue_measured_fraction_full 0.537
_diffrn_reflns_Laue_measured_fraction_max 0.530
_diffrn_reflns_limit_h_max       16
_diffrn_reflns_limit_h_min       -16
_diffrn_reflns_limit_k_max       19
_diffrn_reflns_limit_k_min       -19
_diffrn_reflns_limit_l_max       16
_diffrn_reflns_limit_l_min       -16
_diffrn_reflns_number            6502
_diffrn_reflns_point_group_measured_fraction_full 0.537
_diffrn_reflns_point_group_measured_fraction_max 0.530
_diffrn_reflns_theta_full        0.863
_diffrn_reflns_theta_max         0.935
_diffrn_reflns_theta_min         0.075
_diffrn_source                   'electron microscope'
_exptl_absorpt_coefficient_mu    0.000
_exptl_crystal_colour            white
_exptl_crystal_density_diffrn    1.529
_exptl_crystal_description       nano-crystals
_exptl_crystal_F_000             370
_exptl_crystal_size_max          0.0005
_exptl_crystal_size_mid          0.0005
_exptl_crystal_size_min          0.0003
_refine_diff_density_max         0.170
_refine_diff_density_min         -0.194
_refine_diff_density_rms         0.046
_refine_ls_extinction_coef       1313(17)
_refine_ls_extinction_expression Fc^*^=kFc[1+0.001xFc^2^\l^3^/sin(2\q)]^-1/4^
_refine_ls_extinction_method     'SHELXL-2018/3 (Sheldrick 2018)'
_refine_ls_goodness_of_fit_ref   1.950
_refine_ls_hydrogen_treatment    undef
_refine_ls_matrix_type           full
_refine_ls_number_parameters     302
_refine_ls_number_reflns         3132
_refine_ls_number_restraints     333
_refine_ls_restrained_S_all      1.870
_refine_ls_R_factor_all          0.2192
_refine_ls_R_factor_gt           0.1784
_refine_ls_shift/su_max          0.002
_refine_ls_shift/su_mean         0.000
_refine_ls_structure_factor_coef Fsqd
_refine_ls_weighting_details
'w=1/[\s^2^(Fo^2^)+(0.1000P)^2^] where P=(Fo^2^+2Fc^2^)/3'
_refine_ls_weighting_scheme      calc
_refine_ls_wR_factor_gt          0.4033
_refine_ls_wR_factor_ref         0.4232
_reflns_Friedel_coverage         0.000
_reflns_number_gt                1874
_reflns_number_total             3132
_reflns_threshold_expression     'I > 2\s(I)'
_cod_data_source_file            d1fd00020a1.cif
_cod_data_source_block           5
_cod_depositor_comments
'Adding full bibliography for 1562402--1562412.cif.'
_cod_original_sg_symbol_H-M      'P 21/c'
_cod_original_formula_sum        'C10 N5 O0.50 Zn1.50'
_cod_database_code               1562403
_shelx_shelxl_version_number     2018/3
_shelx_space_group_comment
;
The symmetry employed for this shelxl refinement is uniquely defined
by the following loop, which should always be used as a source of
symmetry information in preference to the above space-group names.
They are only intended as comments.
;
_shelx_res_file
;
TITL 14m_a.res in P2(1)/c
    1.res
    created by SHELXL-2018/3 at 10:14:01 on 19-Feb-2021
REM Old TITL 14m in P2(1)/c

REM SHELXT solution in P2(1)/c
REM R1 0.238,  Rweak 0.111,  Alpha 0.110,  Orientation as input
REM Formula found by SHELXT:  C27 N4 Cl3

CELL  0.02510   13.654    14.936    14.311  90.000 118.162  90.000
ZERR   8.000    0.0019   0.0032   0.0024    0.000    0.011    0.000
LATT  1
SYMM -X, 1/2+Y, 1/2-Z
SFAC C  0.73070  36.99510   1.19510  11.29660   0.45630   2.81390 =
        0.12470   0.34560   0.00000   0.000   0.000   0.000   0.770  12.011
SFAC N  0.57170  28.84650   1.04250   9.05420   0.46470   2.42130 =
        0.13110   0.31670   0.00000   0.000   0.000   0.000   0.750  14.007
SFAC ZN 1.94180  54.16210   1.95010  12.51770   1.61920   2.41640 =
        0.54340   0.32950   0.00000   0.000   0.000   0.000   1.250  65.390
SFAC O  0.45480  23.78030   0.91730   7.62200   0.47190   2.14400 =
        0.13840   0.29590   0.00000   0.000   0.000   0.000   0.730  15.999
UNIT 80 40 12 4

L.S. 200
BOND $H
LIST 3
FMAP 2
PLAN 20
ACTA
DFIX  1.49  C3  C7  C5  C20  C1  C15  C2  C6  C4  C19
DFIX  1.343  C3  N10  C3  N9  C1  N7  C1  N8  C5  N5
DFIX  1.343  C5  N6  C2  N3  C2  N4  C4  N2  C4  N1
DFIX  1.37  N10  C14  N9  C12  N8  C11  N7  C13  N5  C9
DFIX  1.37  N6  C8  N3  C18  N4  C17  N2  C10  N1  C16
DFIX  1.35  C14  C12  C13  C11  C9  C8  C17  C18  C10  C16

FLAT  C7  C3  N9  C12  C14  N10
FLAT  C20  C5  N5  C9  C8  N6
FLAT  C15  C1  N7  C13  C11  N8
FLAT  C6  C2  N4  C17  C18  N3
FLAT  C19  C4  N1  C16  C10  N2
rem SHEL 999 0.9
RIGU
EADP C20 C5

WGHT    0.100000
EXTI 1313.171021
FVAR      21.09195
ZN1   3    0.285202    0.372114    0.760620    11.00000    0.04481    0.04356 =
         0.03586   -0.00305    0.01820   -0.00183
ZN2   3    0.122340    0.647347    0.975117    11.00000    0.05339    0.05827 =
         0.04610   -0.00289    0.02552    0.00797
ZN3   3    0.299243    0.657848    0.456038    11.00000    0.06755    0.05865 =
         0.05858    0.00482    0.04014   -0.00467
N1    2    0.199624    0.613710    0.133792    11.00000    0.03486    0.06588 =
         0.05298   -0.00962    0.02023   -0.00466
N2    2    0.254288    0.616310    0.306956    11.00000    0.04756    0.05860 =
         0.05223   -0.00368    0.02322   -0.00183
N3    2    0.331227    0.552615    0.554654    11.00000    0.05418    0.06849 =
         0.05876    0.01788    0.03056   -0.00092
N4    2    0.335376    0.453666    0.676510    11.00000    0.05869    0.05749 =
         0.04715    0.01419    0.02322   -0.00096
N5    2    0.411306    0.312555    0.889330    11.00000    0.04293    0.05553 =
         0.04260    0.00090    0.02495    0.00506
N6    2    0.557498    0.228484    0.990506    11.00000    0.04593    0.07291 =
         0.02330    0.00647    0.00994    0.02097
N7    2    0.186483    0.275183    0.659012    11.00000    0.07875    0.06441 =
         0.05823   -0.01174    0.04383   -0.01546
N8    2    0.041609    0.182352    0.575357    11.00000    0.10259    0.06287 =
         0.08063   -0.01768    0.06585   -0.03039
N9    2    0.188794    0.444722    0.807004    11.00000    0.04889    0.05438 =
         0.05674   -0.01257    0.02426    0.00342
N10   2    0.132356    0.546732    0.889228    11.00000    0.06022    0.06005 =
         0.05767   -0.00963    0.03127    0.00909
O1    4    0.172885    0.732068    0.447060    11.00000    0.04770    0.07878 =
         0.04375   -0.00666    0.01866    0.00289
C1    1    0.110591    0.223154    0.665860    11.00000    0.07188    0.04972 =
         0.06709   -0.00170    0.05020   -0.00305
C2    1    0.273850    0.504968    0.591411    11.00000    0.04392    0.06455 =
         0.05191    0.01745    0.01995   -0.00433
C3    1    0.217981    0.510927    0.878915    11.00000    0.04893    0.05552 =
         0.04592   -0.01189    0.02484   -0.00093
C4    1    0.214745    0.665687    0.217509    11.00000    0.04759    0.05443 =
         0.05080   -0.00884    0.02295   -0.01095
C5    1    0.494774    0.264429    0.893828    11.00000    0.04853    0.08948 =
         0.02562    0.00196    0.01214    0.02487
C6    1    0.149785    0.508330    0.539850    11.00000    0.04616    0.10142 =
         0.14216    0.05719    0.03455   -0.00270
C7    1    0.333551    0.541042    0.941708    11.00000    0.04760    0.08105 =
         0.10752   -0.02188    0.02286   -0.01095
C8    1    0.499670    0.249501    1.043122    11.00000    0.10144    0.06984 =
         0.06654    0.02063    0.05735    0.03343
C9    1    0.412567    0.301675    0.984440    11.00000    0.08258    0.07157 =
         0.05596    0.01517    0.05057    0.01627
C10   1    0.258265    0.527846    0.273549    11.00000    0.05573    0.06196 =
         0.06692    0.00698    0.03535    0.00778
C11   1    0.082226    0.203321    0.507670    11.00000    0.08865    0.09058 =
         0.07427   -0.01109    0.05370   -0.03477
C12   1    0.075278    0.437269    0.765205    11.00000    0.04919    0.06308 =
         0.06733   -0.02101    0.02193    0.00277
C13   1    0.168127    0.261649    0.556324    11.00000    0.07230    0.07658 =
         0.05612   -0.00810    0.04179   -0.01389
C14   1    0.042687    0.499681    0.815286    11.00000    0.05090    0.06596 =
         0.05281    0.00056    0.01689    0.01956
C15   1    0.098523    0.211437    0.763549    11.00000    0.16476    0.08110 =
         0.09020    0.00866    0.09826   -0.00952
C16   1    0.220511    0.526546    0.165070    11.00000    0.03464    0.07284 =
         0.06334   -0.00629    0.02121    0.00531
C17   1    0.442195    0.470777    0.700802    11.00000    0.05333    0.08224 =
         0.08906    0.04454    0.01991   -0.00352
C18   1    0.441077    0.528090    0.621596    11.00000    0.05750    0.08603 =
         0.04818    0.00770    0.02143   -0.00633
C19   1    0.193990    0.765787    0.210449    11.00000    0.10521    0.05834 =
         0.03300   -0.00050    0.02848    0.00301
C20   1    0.519623    0.253364    0.802356    11.00000    0.04853    0.08948 =
         0.02562    0.00196    0.01214    0.02487
HKLF 4




REM  14m_a.res in P2(1)/c
REM wR2 = 0.4232, GooF = S = 1.950, Restrained GooF = 1.870 for all data
REM R1 = 0.1784 for 1874 Fo > 4sig(Fo) and 0.2192 for all 3132 data
REM 302 parameters refined using 333 restraints

END

WGHT      0.2000      0.0000

REM Highest difference peak  0.170,  deepest hole -0.194,  1-sigma level  0.046
Q1    1   0.2256  0.6609  0.0938  11.00000  0.05    0.16
Q2    1   0.2371  0.6874  0.3972  11.00000  0.05    0.16
Q3    1   0.3530  0.6394  0.4834  11.00000  0.05    0.15
Q4    1   0.2530  0.6640  0.3657  11.00000  0.05    0.14
Q5    1   0.0660  0.2802  0.5411  11.00000  0.05    0.14
Q6    1   0.4910  0.2844  0.9823  11.00000  0.05    0.14
Q7    1   0.5063  0.5599  0.6224  11.00000  0.05    0.13
Q8    1   0.2426  0.7920  0.1714  11.00000  0.05    0.13
Q9    1  -0.0349  0.2105  0.4397  11.00000  0.05    0.13
Q10   1   0.1191  0.6433  1.0176  11.00000  0.05    0.13
Q11   1   0.3722  0.5220  0.6045  11.00000  0.05    0.12
Q12   1   0.4240  0.2302  0.9550  11.00000  0.05    0.12
Q13   1   0.3409  0.7413  0.3275  11.00000  0.05    0.12
Q14   1   0.1301  0.6570  0.0894  11.00000  0.05    0.12
Q15   1   0.0814  0.7385  0.1299  11.00000  0.05    0.12
Q16   1   0.3616  0.6789  0.5203  11.00000  0.05    0.12
Q17   1   0.1916  0.6546  0.2498  11.00000  0.05    0.11
Q18   1  -0.0183  0.2024  0.7092  11.00000  0.05    0.11
Q19   1   0.2532  0.6901  0.2339  11.00000  0.05    0.11
Q20   1   0.0641  0.6776  0.9329  11.00000  0.05    0.11
;
_shelx_res_checksum              56780
loop_
_space_group_symop_operation_xyz
'x, y, z'
'-x, y+1/2, -z+1/2'
'-x, -y, -z'
'x, -y-1/2, z-1/2'
loop_
_atom_site_label
_atom_site_type_symbol
_atom_site_fract_x
_atom_site_fract_y
_atom_site_fract_z
_atom_site_U_iso_or_equiv
_atom_site_adp_type
_atom_site_occupancy
_atom_site_site_symmetry_order
_atom_site_calc_flag
_atom_site_refinement_flags_posn
_atom_site_refinement_flags_adp
_atom_site_refinement_flags_occupancy
_atom_site_disorder_assembly
_atom_site_disorder_group
Zn1 Zn 0.2852(4) 0.37211(19) 0.7606(4) 0.0418(13) Uani 1 1 d . . . . .
Zn2 Zn 0.1223(5) 0.6473(2) 0.9751(5) 0.0518(18) Uani 1 1 d . . . . .
Zn3 Zn 0.2992(5) 0.6578(2) 0.4560(5) 0.0574(19) Uani 1 1 d . . . . .
N1 N 0.1996(13) 0.6137(6) 0.1338(12) 0.051(4) Uani 1 1 d D . . . .
N2 N 0.2543(13) 0.6163(6) 0.3070(12) 0.053(4) Uani 1 1 d D . . . .
N3 N 0.3312(14) 0.5526(7) 0.5547(13) 0.059(4) Uani 1 1 d D . . . .
N4 N 0.3354(12) 0.4537(6) 0.6765(11) 0.055(4) Uani 1 1 d D . . . .
N5 N 0.4113(11) 0.3126(6) 0.8893(11) 0.045(3) Uani 1 1 d D . . . .
N6 N 0.5575(12) 0.2285(6) 0.9905(11) 0.050(4) Uani 1 1 d D . . . .
N7 N 0.1865(14) 0.2752(6) 0.6590(13) 0.062(4) Uani 1 1 d D . . . .
N8 N 0.0416(14) 0.1824(7) 0.5754(13) 0.073(5) Uani 1 1 d D . . . .
N9 N 0.1888(12) 0.4447(6) 0.8070(12) 0.054(4) Uani 1 1 d D . . . .
N10 N 0.1324(12) 0.5467(6) 0.8892(13) 0.058(4) Uani 1 1 d D . . . .
O1 O 0.1729(14) 0.7321(7) 0.4471(13) 0.058(5) Uani 1 1 d . . . . .
C1 C 0.1106(11) 0.2232(6) 0.6659(11) 0.056(4) Uani 1 1 d D . . . .
C2 C 0.2738(12) 0.5050(6) 0.5914(11) 0.055(4) Uani 1 1 d D . . . .
C3 C 0.2180(11) 0.5109(6) 0.8789(10) 0.049(4) Uani 1 1 d D . . . .
C4 C 0.2147(11) 0.6657(6) 0.2175(11) 0.051(4) Uani 1 1 d D . . . .
C5 C 0.4948(11) 0.2644(7) 0.8938(11) 0.057(4) Uani 1 1 d D . . . .
C6 C 0.1498(16) 0.5083(9) 0.5399(18) 0.101(8) Uani 1 1 d D . . . .
C7 C 0.3336(15) 0.5410(9) 0.9417(16) 0.084(6) Uani 1 1 d D . . . .
C8 C 0.4997(15) 0.2495(8) 1.0431(14) 0.072(5) Uani 1 1 d D . . . .
C9 C 0.4126(14) 0.3017(8) 0.9844(13) 0.063(5) Uani 1 1 d D . . . .
C10 C 0.2583(14) 0.5278(7) 0.2735(14) 0.059(5) Uani 1 1 d D . . . .
C11 C 0.0822(16) 0.2033(9) 0.5077(15) 0.078(5) Uani 1 1 d D . . . .
C12 C 0.0753(14) 0.4373(7) 0.7652(14) 0.062(5) Uani 1 1 d D . . . .
C13 C 0.1681(14) 0.2616(8) 0.5563(13) 0.064(5) Uani 1 1 d D . . . .
C14 C 0.0427(14) 0.4997(7) 0.8153(14) 0.060(4) Uani 1 1 d D . . . .
C15 C 0.099(2) 0.2114(8) 0.7635(17) 0.097(8) Uani 1 1 d D . . . .
C16 C 0.2205(14) 0.5265(7) 0.1651(14) 0.058(5) Uani 1 1 d D . . . .
C17 C 0.4422(14) 0.4708(8) 0.7008(15) 0.080(5) Uani 1 1 d D . . . .
C18 C 0.4411(15) 0.5281(8) 0.6216(14) 0.065(5) Uani 1 1 d D . . . .
C19 C 0.1940(16) 0.7658(7) 0.2104(15) 0.067(7) Uani 1 1 d D . . . .
C20 C 0.5196(16) 0.2534(8) 0.8024(14) 0.057(4) Uani 1 1 d D . . . .
loop_
_atom_site_aniso_label
_atom_site_aniso_U_11
_atom_site_aniso_U_22
_atom_site_aniso_U_33
_atom_site_aniso_U_23
_atom_site_aniso_U_13
_atom_site_aniso_U_12
Zn1 0.045(4) 0.0436(16) 0.036(4) -0.0031(15) 0.018(3) -0.0018(15)
Zn2 0.053(5) 0.058(2) 0.046(5) -0.0029(17) 0.026(4) 0.0080(17)
Zn3 0.068(5) 0.059(2) 0.059(5) 0.0048(19) 0.040(5) -0.0047(19)
N1 0.035(12) 0.066(5) 0.053(9) -0.010(4) 0.020(10) -0.005(5)
N2 0.048(12) 0.059(5) 0.052(8) -0.004(4) 0.023(9) -0.002(5)
N3 0.054(10) 0.068(6) 0.059(12) 0.018(6) 0.031(10) -0.001(6)
N4 0.059(10) 0.057(5) 0.047(11) 0.014(5) 0.023(9) -0.001(5)
N5 0.043(8) 0.056(5) 0.043(8) 0.001(4) 0.025(7) 0.005(4)
N6 0.046(11) 0.073(6) 0.023(11) 0.006(5) 0.010(9) 0.021(6)
N7 0.079(11) 0.064(5) 0.058(10) -0.012(5) 0.044(9) -0.015(6)
N8 0.103(13) 0.063(6) 0.081(12) -0.018(6) 0.066(11) -0.030(7)
N9 0.049(9) 0.054(5) 0.057(11) -0.013(5) 0.024(9) 0.003(5)
N10 0.060(11) 0.060(6) 0.058(12) -0.010(5) 0.031(10) 0.009(5)
O1 0.048(13) 0.079(7) 0.044(16) -0.007(5) 0.019(13) 0.003(5)
C1 0.072(11) 0.050(6) 0.067(11) -0.002(5) 0.050(10) -0.003(5)
C2 0.044(8) 0.065(6) 0.052(12) 0.017(6) 0.020(9) -0.004(6)
C3 0.049(9) 0.056(6) 0.046(12) -0.012(5) 0.025(9) -0.001(5)
C4 0.048(13) 0.054(5) 0.051(9) -0.009(4) 0.023(9) -0.011(5)
C5 0.049(10) 0.089(6) 0.026(10) 0.002(5) 0.012(9) 0.025(5)
C6 0.046(10) 0.101(10) 0.14(2) 0.057(12) 0.035(14) -0.003(9)
C7 0.048(11) 0.081(8) 0.11(2) -0.022(9) 0.023(12) -0.011(7)
C8 0.101(15) 0.070(7) 0.067(12) 0.021(7) 0.057(12) 0.033(8)
C9 0.083(13) 0.072(7) 0.056(11) 0.015(7) 0.051(11) 0.016(7)
C10 0.056(14) 0.062(5) 0.067(11) 0.007(5) 0.035(11) 0.008(6)
C11 0.089(15) 0.091(8) 0.074(12) -0.011(7) 0.054(12) -0.035(8)
C12 0.049(9) 0.063(6) 0.067(14) -0.021(6) 0.022(10) 0.003(6)
C13 0.072(13) 0.077(7) 0.056(11) -0.008(6) 0.042(11) -0.014(6)
C14 0.051(10) 0.066(7) 0.053(13) 0.001(6) 0.017(10) 0.020(6)
C15 0.16(2) 0.081(8) 0.090(16) 0.009(9) 0.098(19) -0.010(10)
C16 0.035(14) 0.073(6) 0.063(12) -0.006(6) 0.021(11) 0.005(6)
C17 0.053(10) 0.082(8) 0.089(16) 0.045(9) 0.020(10) -0.004(8)
C18 0.058(11) 0.086(8) 0.048(15) 0.008(7) 0.021(11) -0.006(7)
C19 0.11(2) 0.058(6) 0.033(16) 0.000(6) 0.028(16) 0.003(7)
C20 0.049(10) 0.089(6) 0.026(10) 0.002(5) 0.012(9) 0.025(5)
loop_
_atom_type_symbol
_atom_type_description
_atom_type_scat_dispersion_real
_atom_type_scat_dispersion_imag
_atom_type_scat_source
C C 0.0000 0.0000 'International Tables Vol C Tables 4.2.6.8 and 6.1.1.4'
N N 0.0000 0.0000 'International Tables Vol C Tables 4.2.6.8 and 6.1.1.4'
Zn Zn 0.0000 0.0000 'International Tables Vol C Tables 4.2.6.8 and 6.1.1.4'
O O 0.0000 0.0000 'International Tables Vol C Tables 4.2.6.8 and 6.1.1.4'
loop_
_geom_angle_atom_site_label_1
_geom_angle_atom_site_label_2
_geom_angle_atom_site_label_3
_geom_angle
_geom_angle_site_symmetry_1
_geom_angle_site_symmetry_3
_geom_angle_publ_flag
N7 Zn1 N9 107.3(6) . . ?
N7 Zn1 N4 107.1(6) . . ?
N9 Zn1 N4 108.7(4) . . ?
N7 Zn1 N5 109.0(5) . . ?
N9 Zn1 N5 109.7(5) . . ?
N4 Zn1 N5 114.7(5) . . ?
N10 Zn2 O1 114.7(5) . 4_576 ?
N10 Zn2 N1 110.4(5) . 1_556 ?
O1 Zn2 N1 112.8(7) 4_576 1_556 ?
N10 Zn2 N8 110.7(7) . 2_556 ?
O1 Zn2 N8 96.8(6) 4_576 2_556 ?
N1 Zn2 N8 110.7(5) 1_556 2_556 ?
O1 Zn3 N2 106.2(7) . . ?
O1 Zn3 N6 112.6(5) . 2_656 ?
N2 Zn3 N6 108.5(5) . 2_656 ?
O1 Zn3 N3 111.8(5) . . ?
N2 Zn3 N3 110.9(5) . . ?
N6 Zn3 N3 106.8(7) 2_656 . ?
C4 N1 C16 109.6(12) . . ?
C4 N1 Zn2 128.1(8) . 1_554 ?
C16 N1 Zn2 120.9(10) . 1_554 ?
C4 N2 C10 104.6(12) . . ?
C4 N2 Zn3 128.3(8) . . ?
C10 N2 Zn3 127.1(10) . . ?
C2 N3 C18 103.3(12) . . ?
C2 N3 Zn3 135.8(12) . . ?
C18 N3 Zn3 119.5(8) . . ?
C2 N4 C17 105.2(10) . . ?
C2 N4 Zn1 129.2(10) . . ?
C17 N4 Zn1 125.5(10) . . ?
C5 N5 C9 106.4(11) . . ?
C5 N5 Zn1 128.5(9) . . ?
C9 N5 Zn1 124.2(8) . . ?
C5 N6 C8 102.9(12) . . ?
C5 N6 Zn3 128.8(7) . 2_646 ?
C8 N6 Zn3 128.3(11) . 2_646 ?
C13 N7 C1 103.6(11) . . ?
C13 N7 Zn1 125.9(8) . . ?
C1 N7 Zn1 129.4(9) . . ?
C1 N8 C11 104.3(12) . . ?
C1 N8 Zn2 127.3(8) . 2_546 ?
C11 N8 Zn2 123.2(14) . 2_546 ?
C3 N9 C12 105.0(9) . . ?
C3 N9 Zn1 129.4(10) . . ?
C12 N9 Zn1 125.6(8) . . ?
C3 N10 C14 102.4(10) . . ?
C3 N10 Zn2 132.9(11) . . ?
C14 N10 Zn2 124.5(9) . . ?
Zn3 O1 Zn2 147.0(8) . 4_575 ?
N8 C1 N7 114.3(11) . . ?
N8 C1 C15 121.0(12) . . ?
N7 C1 C15 124.7(13) . . ?
N3 C2 N4 115.3(13) . . ?
N3 C2 C6 121.7(13) . . ?
N4 C2 C6 122.9(10) . . ?
N9 C3 N10 114.5(12) . . ?
N9 C3 C7 122.5(10) . . ?
N10 C3 C7 123.0(12) . . ?
N1 C4 N2 110.5(10) . . ?
N1 C4 C19 124.0(11) . . ?
N2 C4 C19 125.5(11) . . ?
N5 C5 N6 112.4(11) . . ?
N5 C5 C20 124.0(12) . . ?
N6 C5 C20 123.6(11) . . ?
N6 C8 C9 111.3(13) . . ?
N5 C9 C8 106.6(10) . . ?
C16 C10 N2 109.8(11) . . ?
N8 C11 C13 109.0(13) . . ?
N9 C12 C14 107.1(12) . . ?
N7 C13 C11 108.5(10) . . ?
N10 C14 C12 111.0(13) . . ?
N1 C16 C10 105.3(11) . . ?
C18 C17 N4 107.8(14) . . ?
C17 C18 N3 108.1(12) . . ?
loop_
_geom_bond_atom_site_label_1
_geom_bond_atom_site_label_2
_geom_bond_distance
_geom_bond_site_symmetry_2
_geom_bond_publ_flag
Zn1 N7 2.044(14) . ?
Zn1 N9 2.043(10) . ?
Zn1 N4 2.045(10) . ?
Zn1 N5 2.038(15) . ?
Zn2 N10 1.987(11) . ?
Zn2 O1 2.035(10) 4_576 ?
Zn2 N1 2.064(16) 1_556 ?
Zn2 N8 2.069(16) 2_556 ?
Zn3 O1 2.003(13) . ?
Zn3 N2 2.019(14) . ?
Zn3 N6 2.028(14) 2_656 ?
Zn3 N3 2.018(12) . ?
N1 C4 1.359(14) . ?
N1 C16 1.362(13) . ?
N2 C4 1.350(15) . ?
N2 C10 1.415(12) . ?
N3 C2 1.336(11) . ?
N3 C18 1.395(16) . ?
N4 C2 1.345(15) . ?
N4 C17 1.355(15) . ?
N5 C5 1.323(12) . ?
N5 C9 1.363(14) . ?
N6 C5 1.348(15) . ?
N6 C8 1.360(12) . ?
N7 C13 1.384(15) . ?
N7 C1 1.335(13) . ?
N8 C1 1.336(16) . ?
N8 C11 1.361(13) . ?
N9 C3 1.345(13) . ?
N9 C12 1.377(15) . ?
N10 C3 1.356(12) . ?
N10 C14 1.375(17) . ?
C1 C15 1.493(14) . ?
C2 C6 1.496(16) . ?
C3 C7 1.470(16) . ?
C4 C19 1.516(12) . ?
C5 C20 1.508(13) . ?
C8 C9 1.336(17) . ?
C10 C16 1.386(16) . ?
C11 C13 1.360(16) . ?
C12 C14 1.372(12) . ?
C17 C18 1.415(14) . ?
