#------------------------------------------------------------------------------
#$Date: 2021-11-06 22:10:47 +0200 (Sat, 06 Nov 2021) $
#$Revision: 270454 $
#$URL: file:///home/coder/svn-repositories/cod/cif/1/56/24/1562402.cif $
#------------------------------------------------------------------------------
#
# This file is available in the Crystallography Open Database (COD),
# http://www.crystallography.net/
#
# All data on this site have been placed in the public domain by the
# contributors.
#
data_1562402
loop_
_publ_author_name
'Ge, Meng'
'Yang, Taimin'
'Wang, Yanzhi'
'Carraro, Francesco'
'Liang, Weibin'
'Doonan, Christian'
'Falcaro, Paolo'
'Zheng, Haoquan'
'Zou, Xiaodong'
'Huang, Zhehao'
_publ_section_title
;
 On the completeness of three-dimensional electron diffraction data for
 structural analysis of metal-organic frameworks.
;
_journal_issue                   0
_journal_name_full               'Faraday discussions'
_journal_page_first              66
_journal_page_last               80
_journal_paper_doi               10.1039/d1fd00020a
_journal_volume                  231
_journal_year                    2021
_chemical_formula_sum            'C10 N5 O0.5 Zn1.5'
_chemical_formula_weight         296.23
_space_group_crystal_system      monoclinic
_space_group_IT_number           14
_space_group_name_Hall           '-P 2ybc'
_space_group_name_H-M_alt        'P 1 21/c 1'
_audit_creation_method           SHELXL-2018/3
_audit_update_record
;
2021-02-19 deposited with the CCDC.	2021-05-04 downloaded from the CCDC.
;
_cell_angle_alpha                90
_cell_angle_beta                 118.162(11)
_cell_angle_gamma                90
_cell_formula_units_Z            8
_cell_length_a                   13.6540(19)
_cell_length_b                   14.936(3)
_cell_length_c                   14.311(2)
_cell_measurement_reflns_used    2189
_cell_measurement_temperature    293(2)
_cell_measurement_theta_max      0.899
_cell_measurement_theta_min      0.014
_cell_volume                     2573.0(8)
_computing_structure_refinement  'SHELXL-2018/3 (Sheldrick, 2018)'
_computing_structure_solution    'SHELXT 2014/5 (Sheldrick, 2014)'
_diffrn_ambient_temperature      293(2)
_diffrn_measured_fraction_theta_full 0.445
_diffrn_measured_fraction_theta_max 0.440
_diffrn_measurement_device_type  'JEOL JEM-2100 LaB6'
_diffrn_measurement_method       'Continuous rotation electron diffraction'
_diffrn_radiation_type           electron
_diffrn_radiation_wavelength     0.0251
_diffrn_reflns_av_R_equivalents  0.0884
_diffrn_reflns_av_unetI/netI     0.1228
_diffrn_reflns_Laue_measured_fraction_full 0.445
_diffrn_reflns_Laue_measured_fraction_max 0.440
_diffrn_reflns_limit_h_max       16
_diffrn_reflns_limit_h_min       -16
_diffrn_reflns_limit_k_max       18
_diffrn_reflns_limit_k_min       -18
_diffrn_reflns_limit_l_max       17
_diffrn_reflns_limit_l_min       -17
_diffrn_reflns_number            3935
_diffrn_reflns_point_group_measured_fraction_full 0.445
_diffrn_reflns_point_group_measured_fraction_max 0.440
_diffrn_reflns_theta_full        0.863
_diffrn_reflns_theta_max         0.882
_diffrn_reflns_theta_min         0.101
_diffrn_source                   'electron microscope'
_exptl_absorpt_coefficient_mu    0.000
_exptl_crystal_colour            white
_exptl_crystal_density_diffrn    1.529
_exptl_crystal_description       nano-crystals
_exptl_crystal_F_000             370
_exptl_crystal_size_max          0.0005
_exptl_crystal_size_mid          0.0005
_exptl_crystal_size_min          0.0003
_refine_diff_density_max         0.149
_refine_diff_density_min         -0.124
_refine_diff_density_rms         0.033
_refine_ls_extinction_coef       1267(25)
_refine_ls_extinction_expression Fc^*^=kFc[1+0.001xFc^2^\l^3^/sin(2\q)]^-1/4^
_refine_ls_extinction_method     'SHELXL-2018/3 (Sheldrick 2018)'
_refine_ls_goodness_of_fit_ref   1.660
_refine_ls_hydrogen_treatment    undef
_refine_ls_matrix_type           full
_refine_ls_number_parameters     302
_refine_ls_number_reflns         2189
_refine_ls_number_restraints     333
_refine_ls_restrained_S_all      1.561
_refine_ls_R_factor_all          0.2035
_refine_ls_R_factor_gt           0.1738
_refine_ls_shift/su_max          0.062
_refine_ls_shift/su_mean         0.000
_refine_ls_structure_factor_coef Fsqd
_refine_ls_weighting_details
'w=1/[\s^2^(Fo^2^)+(0.2000P)^2^] where P=(Fo^2^+2Fc^2^)/3'
_refine_ls_weighting_scheme      calc
_refine_ls_wR_factor_gt          0.4564
_refine_ls_wR_factor_ref         0.4704
_reflns_Friedel_coverage         0.000
_reflns_number_gt                1495
_reflns_number_total             2189
_reflns_threshold_expression     'I > 2\s(I)'
_cod_data_source_file            d1fd00020a1.cif
_cod_data_source_block           1
_cod_depositor_comments
'Adding full bibliography for 1562402--1562412.cif.'
_cod_original_sg_symbol_H-M      'P 21/c'
_cod_original_formula_sum        'C10 N5 O0.50 Zn1.50'
_cod_database_code               1562402
_shelx_shelxl_version_number     2018/3
_shelx_space_group_comment
;
The symmetry employed for this shelxl refinement is uniquely defined
by the following loop, which should always be used as a source of
symmetry information in preference to the above space-group names.
They are only intended as comments.
;
_shelx_res_file
;
TITL 14m_a.res in P2(1)/c
    a.res
    created by SHELXL-2018/3 at 10:03:58 on 19-Feb-2021
REM Old TITL 14m in P2(1)/c

REM SHELXT solution in P2(1)/c
REM R1 0.238,  Rweak 0.111,  Alpha 0.110,  Orientation as input
REM Formula found by SHELXT:  C27 N4 Cl3

CELL  0.02510  13.654    14.936    14.311  90.000 118.162  90.000
ZERR   8.000    0.0019   0.0032   0.0024    0.000    0.011    0.000
LATT  1
SYMM -X, 1/2+Y, 1/2-Z
SFAC C  0.73070  36.99510   1.19510  11.29660   0.45630   2.81390 =
        0.12470   0.34560   0.00000   0.000   0.000   0.000   0.770  12.011
SFAC N  0.57170  28.84650   1.04250   9.05420   0.46470   2.42130 =
        0.13110   0.31670   0.00000   0.000   0.000   0.000   0.750  14.007
SFAC ZN 1.94180  54.16210   1.95010  12.51770   1.61920   2.41640 =
        0.54340   0.32950   0.00000   0.000   0.000   0.000   1.250  65.390
SFAC O  0.45480  23.78030   0.91730   7.62200   0.47190   2.14400 =
        0.13840   0.29590   0.00000   0.000   0.000   0.000   0.730  15.999
UNIT 80 40 12 4

L.S. 200
BOND $H
LIST 3
FMAP 2
PLAN 20
ACTA
DFIX  1.49  C3  C7  C5  C20  C1  C15  C2  C6  C4  C19
DFIX  1.343  C3  N10  C3  N9  C1  N7  C1  N8  C5  N5
DFIX  1.343  C5  N6  C2  N3  C2  N4  C4  N2  C4  N1
DFIX  1.37  N10  C14  N9  C12  N8  C11  N7  C13  N5  C9
DFIX  1.37  N6  C8  N3  C18  N4  C17  N2  C10  N1  C16
DFIX  1.35  C14  C12  C13  C11  C9  C8  C17  C18  C10  C16

FLAT  C7  C3  N9  C12  C14  N10
FLAT  C20  C5  N5  C9  C8  N6
FLAT  C15  C1  N7  C13  C11  N8
FLAT  C6  C2  N4  C17  C18  N3
FLAT  C19  C4  N1  C16  C10  N2
rem SHEL 999 0.9
RIGU
EADP C20 C5

WGHT    0.200000
EXTI 1266.532715
FVAR      22.69588
ZN1   3    0.284911    0.371774    0.760420    11.00000    0.04627    0.04694 =
         0.04148   -0.00147    0.02258   -0.00141
ZN2   3    0.123714    0.647289    0.976411    11.00000    0.05890    0.06485 =
         0.05627   -0.00081    0.03364    0.01157
ZN3   3    0.300940    0.658320    0.458038    11.00000    0.05992    0.06647 =
         0.05838    0.00293    0.03719   -0.00784
N1    2    0.197163    0.614015    0.131884    11.00000    0.03358    0.04515 =
         0.06074   -0.00458    0.01922   -0.00180
N2    2    0.257011    0.615592    0.307906    11.00000    0.06311    0.05546 =
         0.06365   -0.00121    0.03706   -0.00664
N3    2    0.334278    0.551876    0.559537    11.00000    0.06849    0.05747 =
         0.08746    0.01168    0.04478    0.00340
N4    2    0.335983    0.454260    0.678027    11.00000    0.07485    0.05274 =
         0.07804    0.02492    0.04790    0.00782
N5    2    0.409092    0.312687    0.889528    11.00000    0.05005    0.05881 =
         0.03065   -0.01385    0.01698    0.00324
N6    2    0.552234    0.227546    0.985867    11.00000    0.11190    0.10157 =
         0.05518    0.03852    0.05912    0.06374
N7    2    0.183037    0.274789    0.654387    11.00000    0.06907    0.06565 =
         0.04014   -0.00701    0.03076   -0.02094
N8    2    0.035716    0.182866    0.570177    11.00000    0.06910    0.04739 =
         0.05579   -0.01764    0.03752   -0.02069
N9    2    0.189179    0.446587    0.806816    11.00000    0.05343    0.06416 =
         0.05742   -0.00404    0.02853    0.01185
N10   2    0.135178    0.545528    0.892921    11.00000    0.01963    0.06090 =
         0.01726    0.00461   -0.00712    0.02515
O1    4    0.174853    0.731961    0.450738    11.00000    0.07369    0.07192 =
         0.09926   -0.01016    0.04922    0.00276
C1    1    0.107197    0.221889    0.664093    11.00000    0.07593    0.05325 =
         0.06038   -0.02703    0.04085   -0.02618
C2    1    0.274097    0.504417    0.591223    11.00000    0.06422    0.10182 =
         0.05324    0.01915    0.03154   -0.00155
C3    1    0.219793    0.508085    0.883971    11.00000    0.02414    0.05432 =
         0.04925   -0.00281    0.00644    0.01474
C4    1    0.216915    0.665682    0.219070    11.00000    0.11220    0.05462 =
         0.06771    0.00713    0.06868    0.01114
C5    1    0.491123    0.263489    0.890780    11.00000    0.05181    0.09376 =
         0.04000    0.00884    0.02124    0.02397
C6    1    0.149532    0.506736    0.538270    11.00000    0.06332    0.14041 =
         0.12256    0.05497    0.03804    0.00146
C7    1    0.338663    0.535712    0.949952    11.00000    0.01788    0.08871 =
         0.08297    0.00980    0.00232    0.01107
C8    1    0.501477    0.247526    1.045239    11.00000    0.06906    0.06429 =
         0.05351    0.01437    0.03878    0.02322
C9    1    0.413140    0.301739    0.985277    11.00000    0.07353    0.08669 =
         0.05800    0.02196    0.04577    0.03586
C10   1    0.261837    0.526919    0.278091    11.00000    0.09147    0.05917 =
         0.06067   -0.00011    0.04117    0.00970
C11   1    0.076518    0.207454    0.504640    11.00000    0.08529    0.11044 =
         0.05448   -0.03396    0.04002   -0.05565
C12   1    0.076216    0.439664    0.764296    11.00000    0.05262    0.07095 =
         0.06321   -0.02067    0.01846   -0.01431
C13   1    0.166126    0.261613    0.553568    11.00000    0.04973    0.07406 =
         0.05283   -0.01762    0.02718   -0.02287
C14   1    0.045773    0.498101    0.820889    11.00000    0.02765    0.08429 =
         0.01862    0.00443   -0.01212    0.01102
C15   1    0.103841    0.211010    0.766088    11.00000    0.12685    0.10953 =
         0.07360   -0.02655    0.07196   -0.06283
C16   1    0.225830    0.527974    0.170777    11.00000    0.09970    0.06286 =
         0.05900    0.00392    0.03218    0.01959
C17   1    0.445016    0.469331    0.702827    11.00000    0.06725    0.06112 =
         0.11951    0.03245    0.03263   -0.00800
C18   1    0.443317    0.528115    0.628360    11.00000    0.07128    0.08022 =
         0.11703    0.03728    0.05111    0.01528
C19   1    0.198022    0.763925    0.212092    11.00000    0.16958    0.05449 =
         0.08055    0.01528    0.08153    0.03588
C20   1    0.518356    0.251282    0.800940    11.00000    0.05181    0.09376 =
         0.04000    0.00884    0.02124    0.02397
HKLF 4




REM  14m_a.res in P2(1)/c
REM wR2 = 0.4704, GooF = S = 1.660, Restrained GooF = 1.561 for all data
REM R1 = 0.1738 for 1495 Fo > 4sig(Fo) and 0.2035 for all 2189 data
REM 302 parameters refined using 333 restraints

END

WGHT      0.2000      0.0000

REM Highest difference peak  0.149,  deepest hole -0.124,  1-sigma level  0.033
Q1    1   0.2571  0.3399  0.7513  11.00000  0.05    0.15
Q2    1   0.0598  0.2411  0.6267  11.00000  0.05    0.13
Q3    1   0.2203  0.4566  0.1235  11.00000  0.05    0.12
Q4    1   0.3815  0.6371  0.4983  11.00000  0.05    0.12
Q5    1   0.1306  0.6713  0.9995  11.00000  0.05    0.12
Q6    1   0.2178  0.6745  1.0403  11.00000  0.05    0.11
Q7    1   0.3669  0.4008  0.8368  11.00000  0.05    0.11
Q8    1   0.5023  0.5749  0.5961  11.00000  0.05    0.11
Q9    1   0.3224  0.3337  0.9550  11.00000  0.05    0.11
Q10   1   0.0185  0.1158  0.5984  11.00000  0.05    0.10
Q11   1   0.3834  0.2435  0.8452  11.00000  0.05    0.10
Q12   1   0.2814  0.6750  1.0678  11.00000  0.05    0.10
Q13   1   0.4101  0.3276  0.8196  11.00000  0.05    0.10
Q14   1   0.0895  0.6014  0.4452  11.00000  0.05    0.09
Q15   1   0.0437  0.6144  0.9422  11.00000  0.05    0.09
Q16   1   0.3437  0.4371  0.1794  11.00000  0.05    0.09
Q17   1   0.1579  0.2724  0.7381  11.00000  0.05    0.09
Q18   1   0.0419  0.1814  0.7615  11.00000  0.05    0.09
Q19   1   0.5417  0.1924  0.8049  11.00000  0.05    0.09
Q20   1   0.5534  0.3251  0.8750  11.00000  0.05    0.09
;
_shelx_res_checksum              92058
loop_
_space_group_symop_operation_xyz
'x, y, z'
'-x, y+1/2, -z+1/2'
'-x, -y, -z'
'x, -y-1/2, z-1/2'
loop_
_atom_site_label
_atom_site_type_symbol
_atom_site_fract_x
_atom_site_fract_y
_atom_site_fract_z
_atom_site_U_iso_or_equiv
_atom_site_adp_type
_atom_site_occupancy
_atom_site_site_symmetry_order
_atom_site_calc_flag
_atom_site_refinement_flags_posn
_atom_site_refinement_flags_adp
_atom_site_refinement_flags_occupancy
_atom_site_disorder_assembly
_atom_site_disorder_group
Zn1 Zn 0.2849(7) 0.3718(3) 0.7604(6) 0.044(3) Uani 1 1 d . . . . .
Zn2 Zn 0.1237(8) 0.6473(3) 0.9764(7) 0.057(4) Uani 1 1 d . . . . .
Zn3 Zn 0.3009(8) 0.6583(3) 0.4580(7) 0.058(3) Uani 1 1 d . . . . .
N1 N 0.1972(17) 0.6140(7) 0.1319(15) 0.048(6) Uani 1 1 d D . . . .
N2 N 0.2570(19) 0.6156(7) 0.3079(15) 0.058(6) Uani 1 1 d D . . . .
N3 N 0.334(2) 0.5519(9) 0.5595(19) 0.068(7) Uani 1 1 d D . . . .
N4 N 0.3360(17) 0.4543(8) 0.6780(15) 0.064(6) Uani 1 1 d D . . . .
N5 N 0.4091(17) 0.3127(8) 0.8895(14) 0.047(4) Uani 1 1 d D . . . .
N6 N 0.552(2) 0.2275(10) 0.9859(15) 0.082(8) Uani 1 1 d D . . . .
N7 N 0.1830(18) 0.2748(8) 0.6544(14) 0.056(5) Uani 1 1 d D . . . .
N8 N 0.0357(17) 0.1829(8) 0.5702(14) 0.054(6) Uani 1 1 d D . . . .
N9 N 0.1892(18) 0.4466(8) 0.8068(15) 0.057(6) Uani 1 1 d D . . . .
N10 N 0.1352(17) 0.5455(8) 0.8929(15) 0.039(6) Uani 1 1 d D . . . .
O1 O 0.175(2) 0.7320(9) 0.451(2) 0.078(11) Uani 1 1 d . . . . .
C1 C 0.1072(15) 0.2219(8) 0.6641(13) 0.060(6) Uani 1 1 d D . . . .
C2 C 0.2741(18) 0.5044(9) 0.5912(15) 0.072(7) Uani 1 1 d D . . . .
C3 C 0.2198(16) 0.5081(8) 0.8840(14) 0.047(6) Uani 1 1 d D . . . .
C4 C 0.2169(15) 0.6657(8) 0.2191(13) 0.068(8) Uani 1 1 d D . . . .
C5 C 0.4911(15) 0.2635(9) 0.8908(13) 0.062(6) Uani 1 1 d D . . . .
C6 C 0.150(2) 0.5067(15) 0.538(2) 0.111(11) Uani 1 1 d D . . . .
C7 C 0.339(2) 0.5357(12) 0.950(2) 0.072(7) Uani 1 1 d D . . . .
C8 C 0.501(2) 0.2475(9) 1.0452(16) 0.058(7) Uani 1 1 d D . . . .
C9 C 0.4131(19) 0.3017(11) 0.9853(15) 0.067(7) Uani 1 1 d D . . . .
C10 C 0.262(2) 0.5269(9) 0.2781(17) 0.068(9) Uani 1 1 d D . . . .
C11 C 0.077(2) 0.2075(13) 0.5046(18) 0.081(8) Uani 1 1 d D . . . .
C12 C 0.076(2) 0.4397(10) 0.7643(18) 0.066(6) Uani 1 1 d D . . . .
C13 C 0.1661(18) 0.2616(10) 0.5536(15) 0.058(6) Uani 1 1 d D . . . .
C14 C 0.046(2) 0.4981(11) 0.8209(18) 0.053(6) Uani 1 1 d D . . . .
C15 C 0.104(3) 0.2110(12) 0.7661(19) 0.093(11) Uani 1 1 d D . . . .
C16 C 0.226(2) 0.5280(9) 0.1708(17) 0.076(10) Uani 1 1 d D . . . .
C17 C 0.445(2) 0.4693(10) 0.703(2) 0.087(8) Uani 1 1 d D . . . .
C18 C 0.443(2) 0.5281(12) 0.628(2) 0.087(8) Uani 1 1 d D . . . .
C19 C 0.198(3) 0.7639(9) 0.212(2) 0.092(16) Uani 1 1 d D . . . .
C20 C 0.518(2) 0.2513(11) 0.801(2) 0.062(6) Uani 1 1 d D . . . .
loop_
_atom_site_aniso_label
_atom_site_aniso_U_11
_atom_site_aniso_U_22
_atom_site_aniso_U_33
_atom_site_aniso_U_23
_atom_site_aniso_U_13
_atom_site_aniso_U_12
Zn1 0.046(7) 0.047(2) 0.041(6) -0.001(2) 0.023(6) -0.001(3)
Zn2 0.059(10) 0.065(3) 0.056(8) -0.001(3) 0.034(9) 0.012(3)
Zn3 0.060(9) 0.066(3) 0.058(7) 0.003(3) 0.037(8) -0.008(3)
N1 0.034(19) 0.045(5) 0.061(12) -0.005(6) 0.019(16) -0.002(6)
N2 0.06(2) 0.055(6) 0.064(11) -0.001(6) 0.037(15) -0.007(7)
N3 0.068(17) 0.057(7) 0.087(16) 0.012(8) 0.045(16) 0.003(8)
N4 0.075(17) 0.053(6) 0.078(15) 0.025(7) 0.048(15) 0.008(8)
N5 0.050(13) 0.059(6) 0.031(8) -0.014(6) 0.017(10) 0.003(7)
N6 0.11(2) 0.102(10) 0.055(13) 0.039(11) 0.059(16) 0.064(13)
N7 0.069(15) 0.066(7) 0.040(10) -0.007(7) 0.031(12) -0.021(8)
N8 0.069(16) 0.047(6) 0.056(12) -0.018(7) 0.038(13) -0.021(7)
N9 0.053(15) 0.064(7) 0.057(14) -0.004(7) 0.029(15) 0.012(7)
N10 0.020(16) 0.061(7) 0.017(13) 0.005(6) -0.007(14) 0.025(6)
O1 0.07(3) 0.072(8) 0.10(3) -0.010(10) 0.05(3) 0.003(10)
C1 0.076(17) 0.053(7) 0.060(12) -0.027(8) 0.041(14) -0.026(8)
C2 0.064(16) 0.102(11) 0.053(16) 0.019(10) 0.032(16) -0.002(11)
C3 0.024(14) 0.054(7) 0.049(14) -0.003(7) 0.006(14) 0.015(7)
C4 0.11(2) 0.055(6) 0.068(12) 0.007(6) 0.069(17) 0.011(9)
C5 0.052(16) 0.094(7) 0.040(11) 0.009(7) 0.021(13) 0.024(8)
C6 0.063(17) 0.140(18) 0.12(3) 0.05(2) 0.04(2) 0.001(19)
C7 0.018(16) 0.089(11) 0.08(2) 0.010(12) 0.002(16) 0.011(10)
C8 0.069(19) 0.064(8) 0.054(13) 0.014(9) 0.039(15) 0.023(10)
C9 0.07(2) 0.087(10) 0.058(13) 0.022(10) 0.046(15) 0.036(12)
C10 0.09(3) 0.059(7) 0.061(16) 0.000(7) 0.04(2) 0.010(9)
C11 0.09(2) 0.110(12) 0.054(13) -0.034(11) 0.040(16) -0.056(13)
C12 0.053(16) 0.071(9) 0.063(16) -0.021(9) 0.018(15) -0.014(9)
C13 0.050(18) 0.074(9) 0.053(12) -0.018(8) 0.027(15) -0.023(9)
C14 0.028(16) 0.084(9) 0.019(15) 0.004(8) -0.012(15) 0.011(9)
C15 0.13(3) 0.110(12) 0.074(18) -0.027(13) 0.07(2) -0.063(17)
C16 0.10(3) 0.063(7) 0.059(16) 0.004(8) 0.03(2) 0.020(11)
C17 0.067(17) 0.061(9) 0.12(2) 0.032(12) 0.033(17) -0.008(11)
C18 0.071(17) 0.080(11) 0.12(2) 0.037(13) 0.051(18) 0.015(12)
C19 0.17(5) 0.054(7) 0.08(3) 0.015(9) 0.08(4) 0.036(12)
C20 0.052(16) 0.094(7) 0.040(11) 0.009(7) 0.021(13) 0.024(8)
loop_
_atom_type_symbol
_atom_type_description
_atom_type_scat_dispersion_real
_atom_type_scat_dispersion_imag
_atom_type_scat_source
C C 0.0000 0.0000 'International Tables Vol C Tables 4.2.6.8 and 6.1.1.4'
N N 0.0000 0.0000 'International Tables Vol C Tables 4.2.6.8 and 6.1.1.4'
Zn Zn 0.0000 0.0000 'International Tables Vol C Tables 4.2.6.8 and 6.1.1.4'
O O 0.0000 0.0000 'International Tables Vol C Tables 4.2.6.8 and 6.1.1.4'
loop_
_geom_angle_atom_site_label_1
_geom_angle_atom_site_label_2
_geom_angle_atom_site_label_3
_geom_angle
_geom_angle_site_symmetry_1
_geom_angle_site_symmetry_3
_geom_angle_publ_flag
N7 Zn1 N9 107.8(8) . . ?
N7 Zn1 N4 106.9(7) . . ?
N9 Zn1 N4 107.5(6) . . ?
N7 Zn1 N5 110.2(7) . . ?
N9 Zn1 N5 109.2(7) . . ?
N4 Zn1 N5 115.0(8) . . ?
N10 Zn2 O1 116.1(6) . 4_576 ?
N10 Zn2 N1 109.6(6) . 1_556 ?
O1 Zn2 N1 112.5(10) 4_576 1_556 ?
N10 Zn2 N8 112.4(9) . 2_556 ?
O1 Zn2 N8 96.6(9) 4_576 2_556 ?
N1 Zn2 N8 108.9(6) 1_556 2_556 ?
O1 Zn3 N2 107.4(11) . . ?
O1 Zn3 N6 113.6(8) . 2_656 ?
N2 Zn3 N6 108.5(6) . 2_656 ?
O1 Zn3 N3 111.1(7) . . ?
N2 Zn3 N3 111.1(6) . . ?
N6 Zn3 N3 105.3(10) 2_656 . ?
C4 N1 C16 105.0(13) . . ?
C4 N1 Zn2 129.8(9) . 1_554 ?
C16 N1 Zn2 124.8(12) . 1_554 ?
C4 N2 C10 107.1(14) . . ?
C4 N2 Zn3 127.3(9) . . ?
C10 N2 Zn3 125.6(12) . . ?
C2 N3 C18 104.6(19) . . ?
C2 N3 Zn3 133.9(19) . . ?
C18 N3 Zn3 120.3(11) . . ?
C2 N4 C17 106.1(13) . . ?
C2 N4 Zn1 129.0(13) . . ?
C17 N4 Zn1 124.9(12) . . ?
C5 N5 C9 106.7(14) . . ?
C5 N5 Zn1 126.0(9) . . ?
C9 N5 Zn1 126.3(12) . . ?
C5 N6 C8 107.0(16) . . ?
C5 N6 Zn3 129.0(8) . 2_646 ?
C8 N6 Zn3 123.9(15) . 2_646 ?
C13 N7 C1 105.5(14) . . ?
C13 N7 Zn1 126.3(9) . . ?
C1 N7 Zn1 127.4(9) . . ?
C1 N8 C11 103.3(15) . . ?
C1 N8 Zn2 126.5(8) . 2_546 ?
C11 N8 Zn2 125.1(17) . 2_546 ?
C3 N9 C12 105.4(13) . . ?
C3 N9 Zn1 129.8(14) . . ?
C12 N9 Zn1 124.8(11) . . ?
C3 N10 C14 102.4(14) . . ?
C3 N10 Zn2 133.8(16) . . ?
C14 N10 Zn2 123.7(11) . . ?
Zn3 O1 Zn2 147.0(14) . 4_575 ?
N8 C1 N7 111.9(12) . . ?
N8 C1 C15 125.4(13) . . ?
N7 C1 C15 122.7(15) . . ?
N3 C2 N4 113.2(19) . . ?
N3 C2 C6 124(2) . . ?
N4 C2 C6 123.0(15) . . ?
N9 C3 N10 114.5(17) . . ?
N9 C3 C7 122.0(13) . . ?
N10 C3 C7 123.3(16) . . ?
N1 C4 N2 111.2(11) . . ?
N1 C4 C19 122.5(12) . . ?
N2 C4 C19 126.3(12) . . ?
N5 C5 N6 110.7(11) . . ?
N5 C5 C20 126.8(16) . . ?
N6 C5 C20 122.4(15) . . ?
N6 C8 C9 107.3(15) . . ?
N5 C9 C8 108.0(12) . . ?
C16 C10 N2 106.6(14) . . ?
N8 C11 C13 111.9(17) . . ?
N9 C12 C14 106.2(18) . . ?
N7 C13 C11 107.1(13) . . ?
N10 C14 C12 111.2(18) . . ?
N1 C16 C10 110.2(14) . . ?
C18 C17 N4 106.5(18) . . ?
C17 C18 N3 109.5(19) . . ?
loop_
_geom_bond_atom_site_label_1
_geom_bond_atom_site_label_2
_geom_bond_distance
_geom_bond_site_symmetry_2
_geom_bond_publ_flag
Zn1 N7 2.084(18) . ?
Zn1 N9 2.054(13) . ?
Zn1 N4 2.042(11) . ?
Zn1 N5 2.03(2) . ?
Zn2 N10 1.985(13) . ?
Zn2 O1 2.029(14) 4_576 ?
Zn2 N1 2.02(2) 1_556 ?
Zn2 N8 2.02(2) 2_556 ?
Zn3 O1 2.00(2) . ?
Zn3 N2 2.041(17) . ?
Zn3 N6 2.05(2) 2_656 ?
Zn3 N3 2.054(18) . ?
N1 C4 1.381(15) . ?
N1 C16 1.382(15) . ?
N2 C4 1.349(16) . ?
N2 C10 1.403(14) . ?
N3 C2 1.317(15) . ?
N3 C18 1.39(2) . ?
N4 C2 1.352(18) . ?
N4 C17 1.376(18) . ?
N5 C5 1.333(16) . ?
N5 C9 1.355(15) . ?
N6 C5 1.328(18) . ?
N6 C8 1.359(13) . ?
N7 C13 1.364(16) . ?
N7 C1 1.361(15) . ?
N8 C1 1.364(18) . ?
N8 C11 1.348(13) . ?
N9 C3 1.342(16) . ?
N9 C12 1.369(19) . ?
N10 C3 1.343(15) . ?
N10 C14 1.366(19) . ?
C1 C15 1.491(15) . ?
C2 C6 1.501(19) . ?
C3 C7 1.500(19) . ?
C4 C19 1.485(15) . ?
C5 C20 1.509(14) . ?
C8 C9 1.367(18) . ?
C10 C16 1.374(18) . ?
C11 C13 1.354(18) . ?
C12 C14 1.381(15) . ?
C17 C18 1.373(16) . ?
