#------------------------------------------------------------------------------
#$Date: 2021-11-06 22:10:47 +0200 (Sat, 06 Nov 2021) $
#$Revision: 270454 $
#$URL: file:///home/coder/svn-repositories/cod/cif/1/56/24/1562411.cif $
#------------------------------------------------------------------------------
#
# This file is available in the Crystallography Open Database (COD),
# http://www.crystallography.net/
#
# All data on this site have been placed in the public domain by the
# contributors.
#
data_1562411
loop_
_publ_author_name
'Ge, Meng'
'Yang, Taimin'
'Wang, Yanzhi'
'Carraro, Francesco'
'Liang, Weibin'
'Doonan, Christian'
'Falcaro, Paolo'
'Zheng, Haoquan'
'Zou, Xiaodong'
'Huang, Zhehao'
_publ_section_title
;
 On the completeness of three-dimensional electron diffraction data for
 structural analysis of metal-organic frameworks.
;
_journal_issue                   0
_journal_name_full               'Faraday discussions'
_journal_page_first              66
_journal_page_last               80
_journal_paper_doi               10.1039/d1fd00020a
_journal_volume                  231
_journal_year                    2021
_chemical_formula_sum            'C10 N5 O0.5 Zn1.5'
_chemical_formula_weight         296.23
_space_group_crystal_system      monoclinic
_space_group_IT_number           14
_space_group_name_Hall           '-P 2ybc'
_space_group_name_H-M_alt        'P 1 21/c 1'
_audit_creation_method           SHELXL-2018/3
_audit_update_record
;
2021-02-19 deposited with the CCDC.	2021-05-04 downloaded from the CCDC.
;
_cell_angle_alpha                90
_cell_angle_beta                 118.162(11)
_cell_angle_gamma                90
_cell_formula_units_Z            8
_cell_length_a                   13.6540(19)
_cell_length_b                   14.936(3)
_cell_length_c                   14.311(2)
_cell_measurement_reflns_used    5262
_cell_measurement_temperature    293(2)
_cell_measurement_theta_max      0.899
_cell_measurement_theta_min      0.014
_cell_volume                     2573.0(8)
_computing_structure_refinement  'SHELXL-2018/3 (Sheldrick, 2018)'
_computing_structure_solution    'SHELXT 2014/5 (Sheldrick, 2014)'
_diffrn_ambient_temperature      293(2)
_diffrn_measured_fraction_theta_full 0.936
_diffrn_measured_fraction_theta_max 0.925
_diffrn_measurement_device_type  'JEOL JEM-2100 LaB6'
_diffrn_measurement_method       'Continuous rotation electron diffraction'
_diffrn_radiation_type           electron
_diffrn_radiation_wavelength     0.0251
_diffrn_reflns_av_R_equivalents  0.5025
_diffrn_reflns_av_unetI/netI     0.4089
_diffrn_reflns_Laue_measured_fraction_full 0.936
_diffrn_reflns_Laue_measured_fraction_max 0.925
_diffrn_reflns_limit_h_max       16
_diffrn_reflns_limit_h_min       -16
_diffrn_reflns_limit_k_max       19
_diffrn_reflns_limit_k_min       -19
_diffrn_reflns_limit_l_max       18
_diffrn_reflns_limit_l_min       -18
_diffrn_reflns_number            46079
_diffrn_reflns_point_group_measured_fraction_full 0.936
_diffrn_reflns_point_group_measured_fraction_max 0.925
_diffrn_reflns_theta_full        0.863
_diffrn_reflns_theta_max         0.922
_diffrn_reflns_theta_min         0.075
_diffrn_source                   'electron microscope'
_exptl_absorpt_coefficient_mu    0.000
_exptl_crystal_colour            white
_exptl_crystal_density_diffrn    1.529
_exptl_crystal_description       nano-crystals
_exptl_crystal_F_000             370
_exptl_crystal_size_max          0.0005
_exptl_crystal_size_mid          0.0005
_exptl_crystal_size_min          0.0003
_refine_diff_density_max         0.446
_refine_diff_density_min         -0.245
_refine_diff_density_rms         0.082
_refine_ls_extinction_coef       2100(11)
_refine_ls_extinction_expression Fc^*^=kFc[1+0.001xFc^2^\l^3^/sin(2\q)]^-1/4^
_refine_ls_extinction_method     'SHELXL-2018/3 (Sheldrick 2018)'
_refine_ls_goodness_of_fit_ref   1.568
_refine_ls_hydrogen_treatment    undef
_refine_ls_matrix_type           full
_refine_ls_number_parameters     302
_refine_ls_number_reflns         5262
_refine_ls_number_restraints     333
_refine_ls_restrained_S_all      1.530
_refine_ls_R_factor_all          0.2499
_refine_ls_R_factor_gt           0.1813
_refine_ls_shift/su_max          0.072
_refine_ls_shift/su_mean         0.000
_refine_ls_structure_factor_coef Fsqd
_refine_ls_weighting_details
'w=1/[\s^2^(Fo^2^)+(0.2000P)^2^] where P=(Fo^2^+2Fc^2^)/3'
_refine_ls_weighting_scheme      calc
_refine_ls_wR_factor_gt          0.4451
_refine_ls_wR_factor_ref         0.4710
_reflns_Friedel_coverage         0.000
_reflns_number_gt                3669
_reflns_number_total             5262
_reflns_threshold_expression     'I > 2\s(I)'
_cod_data_source_file            d1fd00020a1.cif
_cod_data_source_block           M_D
_cod_depositor_comments
'Adding full bibliography for 1562402--1562412.cif.'
_cod_original_sg_symbol_H-M      'P 21/c'
_cod_original_formula_sum        'C10 N5 O0.50 Zn1.50'
_cod_database_code               1562411
_shelx_shelxl_version_number     2018/3
_shelx_space_group_comment
;
The symmetry employed for this shelxl refinement is uniquely defined
by the following loop, which should always be used as a source of
symmetry information in preference to the above space-group names.
They are only intended as comments.
;
_shelx_res_file
;
TITL 14m_a.res in P2(1)/c
    10.res
    created by SHELXL-2018/3 at 10:33:18 on 19-Feb-2021
REM Old TITL 14m in P2(1)/c

REM SHELXT solution in P2(1)/c
REM R1 0.238,  Rweak 0.111,  Alpha 0.110,  Orientation as input
REM Formula found by SHELXT:  C27 N4 Cl3

CELL  0.02510   13.654    14.936    14.311  90.000 118.162  90.000
ZERR   8.000    0.0019   0.0032   0.0024    0.000    0.011    0.000
LATT  1
SYMM -X, 1/2+Y, 1/2-Z
SFAC C  0.73070  36.99510   1.19510  11.29660   0.45630   2.81390 =
        0.12470   0.34560   0.00000   0.000   0.000   0.000   0.770  12.011
SFAC N  0.57170  28.84650   1.04250   9.05420   0.46470   2.42130 =
        0.13110   0.31670   0.00000   0.000   0.000   0.000   0.750  14.007
SFAC ZN 1.94180  54.16210   1.95010  12.51770   1.61920   2.41640 =
        0.54340   0.32950   0.00000   0.000   0.000   0.000   1.250  65.390
SFAC O  0.45480  23.78030   0.91730   7.62200   0.47190   2.14400 =
        0.13840   0.29590   0.00000   0.000   0.000   0.000   0.730  15.999
UNIT 80 40 12 4

L.S. 200
BOND $H
LIST 3
FMAP 2
PLAN 20
ACTA
DFIX  1.49  C3  C7  C5  C20  C1  C15  C2  C6  C4  C19
DFIX  1.343  C3  N10  C3  N9  C1  N7  C1  N8  C5  N5
DFIX  1.343  C5  N6  C2  N3  C2  N4  C4  N2  C4  N1
DFIX  1.37  N10  C14  N9  C12  N8  C11  N7  C13  N5  C9
DFIX  1.37  N6  C8  N3  C18  N4  C17  N2  C10  N1  C16
DFIX  1.35  C14  C12  C13  C11  C9  C8  C17  C18  C10  C16

FLAT  C7  C3  N9  C12  C14  N10
FLAT  C20  C5  N5  C9  C8  N6
FLAT  C15  C1  N7  C13  C11  N8
FLAT  C6  C2  N4  C17  C18  N3
FLAT  C19  C4  N1  C16  C10  N2
rem SHEL 999 0.9
RIGU
EADP C20 C5

WGHT    0.200000
EXTI 2100.100830
FVAR       4.29000
ZN1   3    0.283796    0.371665    0.759336    11.00000    0.05332    0.05097 =
         0.04109    0.00107    0.01934    0.00227
ZN2   3    0.122823    0.647577    0.975909    11.00000    0.05985    0.06743 =
         0.04468   -0.00263    0.02264    0.01095
ZN3   3    0.300351    0.657224    0.457147    11.00000    0.05490    0.06622 =
         0.04538    0.00309    0.02112   -0.00532
N1    2    0.197373    0.613511    0.132356    11.00000    0.06682    0.07017 =
         0.04995   -0.00402    0.02590    0.00827
N2    2    0.254618    0.616158    0.307340    11.00000    0.08306    0.05984 =
         0.04494   -0.00162    0.02871   -0.00644
N3    2    0.333757    0.550464    0.557054    11.00000    0.07160    0.07407 =
         0.05251    0.01407    0.02370   -0.00125
N4    2    0.336494    0.454725    0.678872    11.00000    0.05688    0.06195 =
         0.05215    0.01523    0.01897    0.00560
N5    2    0.408954    0.312114    0.888374    11.00000    0.06262    0.06616 =
         0.04161    0.00628    0.02500    0.01422
N6    2    0.555687    0.227013    0.987017    11.00000    0.06894    0.07437 =
         0.03990    0.00617    0.02558    0.02563
N7    2    0.184931    0.276851    0.657416    11.00000    0.05867    0.07118 =
         0.04898   -0.00871    0.02589   -0.00907
N8    2    0.041107    0.181857    0.574733    11.00000    0.07419    0.06828 =
         0.04198   -0.00476    0.02911   -0.01128
N9    2    0.189251    0.445001    0.806482    11.00000    0.05014    0.05554 =
         0.05552   -0.00824    0.02029   -0.00140
N10   2    0.132120    0.546248    0.888024    11.00000    0.06951    0.07273 =
         0.05091   -0.00061    0.02797    0.01483
O1    4    0.179384    0.733190    0.454821    11.00000    0.07539    0.07725 =
         0.07563   -0.00754    0.04258   -0.00122
C1    1    0.109068    0.222276    0.667141    11.00000    0.06738    0.05532 =
         0.05373   -0.00836    0.03061   -0.00636
C2    1    0.273567    0.505129    0.591640    11.00000    0.05640    0.06518 =
         0.04791    0.01364    0.02135    0.00403
C3    1    0.217607    0.510148    0.880529    11.00000    0.06457    0.05464 =
         0.05228   -0.01007    0.02650   -0.00175
C4    1    0.215760    0.665140    0.216681    11.00000    0.07596    0.05897 =
         0.04482   -0.00249    0.02853    0.00429
C5    1    0.494196    0.264854    0.891109    11.00000    0.09820    0.10085 =
         0.04484    0.01363    0.04019    0.04425
C6    1    0.149336    0.508527    0.539174    11.00000    0.05286    0.08759 =
         0.07564    0.03009    0.01333   -0.00297
C7    1    0.335405    0.540375    0.947372    11.00000    0.06404    0.07534 =
         0.10259   -0.03046    0.02780   -0.01107
C8    1    0.503119    0.251514    1.046282    11.00000    0.10389    0.08925 =
         0.03825    0.02333    0.04480    0.03084
C9    1    0.410754    0.302478    0.983741    11.00000    0.08010    0.08222 =
         0.05831    0.01509    0.04572    0.02440
C10   1    0.262420    0.527248    0.279505    11.00000    0.07488    0.05528 =
         0.05774    0.00104    0.03006   -0.00085
C11   1    0.079700    0.204415    0.504103    11.00000    0.09607    0.08876 =
         0.04208   -0.01787    0.03686   -0.02744
C12   1    0.075292    0.438664    0.761286    11.00000    0.04722    0.06289 =
         0.06100   -0.01389    0.01684    0.00145
C13   1    0.167552    0.261916    0.555535    11.00000    0.07995    0.08931 =
         0.05239   -0.01385    0.04083   -0.01775
C14   1    0.041548    0.500336    0.813985    11.00000    0.07079    0.07060 =
         0.06454   -0.00612    0.03150    0.00771
C15   1    0.103557    0.211800    0.769170    11.00000    0.09923    0.08165 =
         0.05065    0.00516    0.03328   -0.01972
C16   1    0.223262    0.526477    0.167828    11.00000    0.08904    0.06606 =
         0.04650   -0.01076    0.02705    0.00176
C17   1    0.444903    0.469853    0.702486    11.00000    0.05821    0.07245 =
         0.09123    0.01661    0.02046   -0.00849
C18   1    0.443006    0.528238    0.627609    11.00000    0.07147    0.09217 =
         0.09986    0.03497    0.03417    0.00287
C19   1    0.198331    0.764873    0.214278    11.00000    0.10010    0.05733 =
         0.06980   -0.00044    0.04354    0.01116
C20   1    0.520650    0.253595    0.801005    11.00000    0.09820    0.10085 =
         0.04484    0.01363    0.04019    0.04425
HKLF 4




REM  14m_a.res in P2(1)/c
REM wR2 = 0.4710, GooF = S = 1.568, Restrained GooF = 1.530 for all data
REM R1 = 0.1813 for 3669 Fo > 4sig(Fo) and 0.2499 for all 5262 data
REM 302 parameters refined using 333 restraints

END

WGHT      0.2000      0.0000

REM Highest difference peak  0.446,  deepest hole -0.245,  1-sigma level  0.082
Q1    1   0.2262  0.3505  0.7399  11.00000  0.05    0.45
Q2    1   0.3406  0.3483  0.8028  11.00000  0.05    0.44
Q3    1   0.2458  0.6853  0.4390  11.00000  0.05    0.42
Q4    1   0.0565  0.6694  0.9624  11.00000  0.05    0.42
Q5    1   0.3690  0.6706  0.5049  11.00000  0.05    0.40
Q6    1   0.1896  0.6681  1.0242  11.00000  0.05    0.37
Q7    1  -0.0144  0.5298  0.8178  11.00000  0.05    0.28
Q8    1   0.3818  0.5270  0.6226  11.00000  0.05    0.24
Q9    1   0.1242  0.4697  0.7982  11.00000  0.05    0.24
Q10   1   0.1962  0.5395  0.5460  11.00000  0.05    0.23
Q11   1   0.0029  0.4713  0.7626  11.00000  0.05    0.23
Q12   1   0.0423  0.1843  0.7627  11.00000  0.05    0.23
Q13   1   0.2826  0.5167  0.9153  11.00000  0.05    0.22
Q14   1   0.3194  0.4842  0.6346  11.00000  0.05    0.22
Q15   1   0.5547  0.2240  1.0489  11.00000  0.05    0.22
Q16   1   0.3198  0.5461  0.6094  11.00000  0.05    0.21
Q17   1   0.4086  0.4327  0.7284  11.00000  0.05    0.21
Q18   1   0.3821  0.4975  0.9718  11.00000  0.05    0.20
Q19   1   0.4424  0.3083  0.8507  11.00000  0.05    0.20
Q20   1   0.1398  0.2146  0.5838  11.00000  0.05    0.19
;
_shelx_res_checksum              68554
loop_
_space_group_symop_operation_xyz
'x, y, z'
'-x, y+1/2, -z+1/2'
'-x, -y, -z'
'x, -y-1/2, z-1/2'
loop_
_atom_site_label
_atom_site_type_symbol
_atom_site_fract_x
_atom_site_fract_y
_atom_site_fract_z
_atom_site_U_iso_or_equiv
_atom_site_adp_type
_atom_site_occupancy
_atom_site_site_symmetry_order
_atom_site_calc_flag
_atom_site_refinement_flags_posn
_atom_site_refinement_flags_adp
_atom_site_refinement_flags_occupancy
_atom_site_disorder_assembly
_atom_site_disorder_group
Zn1 Zn 0.2838(3) 0.37166(15) 0.75934(18) 0.0496(7) Uani 1 1 d . . . . .
Zn2 Zn 0.1228(3) 0.64758(18) 0.9759(2) 0.0581(8) Uani 1 1 d . . . . .
Zn3 Zn 0.3004(3) 0.65722(18) 0.4571(2) 0.0565(8) Uani 1 1 d . . . . .
N1 N 0.1974(9) 0.6135(5) 0.1324(6) 0.063(2) Uani 1 1 d D . . . .
N2 N 0.2546(9) 0.6162(5) 0.3073(6) 0.063(2) Uani 1 1 d D . . . .
N3 N 0.3338(9) 0.5505(6) 0.5571(6) 0.068(2) Uani 1 1 d D . . . .
N4 N 0.3365(8) 0.4547(5) 0.6789(6) 0.0597(18) Uani 1 1 d D . . . .
N5 N 0.4090(8) 0.3121(5) 0.8884(5) 0.0566(19) Uani 1 1 d D . . . .
N6 N 0.5557(8) 0.2270(5) 0.9870(5) 0.061(2) Uani 1 1 d D . . . .
N7 N 0.1849(8) 0.2769(5) 0.6574(6) 0.0594(19) Uani 1 1 d D . . . .
N8 N 0.0411(8) 0.1819(5) 0.5747(5) 0.061(2) Uani 1 1 d D . . . .
N9 N 0.1893(7) 0.4450(5) 0.8065(6) 0.0556(17) Uani 1 1 d D . . . .
N10 N 0.1321(8) 0.5462(6) 0.8880(6) 0.065(2) Uani 1 1 d D . . . .
O1 O 0.1794(10) 0.7332(6) 0.4548(7) 0.073(2) Uani 1 1 d . . . . .
C1 C 0.1091(8) 0.2223(5) 0.6671(6) 0.058(2) Uani 1 1 d D . . . .
C2 C 0.2736(8) 0.5051(5) 0.5916(6) 0.058(2) Uani 1 1 d D . . . .
C3 C 0.2176(8) 0.5101(5) 0.8805(6) 0.058(2) Uani 1 1 d D . . . .
C4 C 0.2158(8) 0.6651(5) 0.2167(6) 0.060(3) Uani 1 1 d D . . . .
C5 C 0.4942(9) 0.2649(6) 0.8911(6) 0.079(3) Uani 1 1 d D . . . .
C6 C 0.1493(10) 0.5085(7) 0.5392(8) 0.079(3) Uani 1 1 d D . . . .
C7 C 0.3354(11) 0.5404(8) 0.9474(10) 0.085(3) Uani 1 1 d D . . . .
C8 C 0.5031(10) 0.2515(7) 1.0463(6) 0.073(3) Uani 1 1 d D . . . .
C9 C 0.4108(10) 0.3025(7) 0.9837(7) 0.068(3) Uani 1 1 d D . . . .
C10 C 0.2624(10) 0.5272(5) 0.2795(7) 0.063(3) Uani 1 1 d D . . . .
C11 C 0.0797(11) 0.2044(7) 0.5041(7) 0.074(3) Uani 1 1 d D . . . .
C12 C 0.0753(8) 0.4387(6) 0.7613(7) 0.061(2) Uani 1 1 d D . . . .
C13 C 0.1676(10) 0.2619(7) 0.5555(7) 0.070(3) Uani 1 1 d D . . . .
C14 C 0.0415(10) 0.5003(6) 0.8140(8) 0.069(2) Uani 1 1 d D . . . .
C15 C 0.1036(12) 0.2118(7) 0.7692(7) 0.078(3) Uani 1 1 d D . . . .
C16 C 0.2233(11) 0.5265(6) 0.1678(6) 0.069(3) Uani 1 1 d D . . . .
C17 C 0.4449(11) 0.4699(7) 0.7025(9) 0.080(3) Uani 1 1 d D . . . .
C18 C 0.4430(12) 0.5282(8) 0.6276(10) 0.090(4) Uani 1 1 d D . . . .
C19 C 0.1983(11) 0.7649(6) 0.2143(8) 0.074(3) Uani 1 1 d D . . . .
C20 C 0.5207(11) 0.2536(8) 0.8010(7) 0.079(3) Uani 1 1 d D . . . .
loop_
_atom_site_aniso_label
_atom_site_aniso_U_11
_atom_site_aniso_U_22
_atom_site_aniso_U_33
_atom_site_aniso_U_23
_atom_site_aniso_U_13
_atom_site_aniso_U_12
Zn1 0.0533(18) 0.0510(10) 0.0411(10) 0.0011(8) 0.0193(10) 0.0023(10)
Zn2 0.060(2) 0.0674(13) 0.0447(11) -0.0026(9) 0.0226(12) 0.0110(12)
Zn3 0.055(2) 0.0662(13) 0.0454(11) 0.0031(9) 0.0211(12) -0.0053(11)
N1 0.067(7) 0.070(4) 0.050(3) -0.004(3) 0.026(4) 0.008(4)
N2 0.083(8) 0.060(3) 0.045(3) -0.002(3) 0.029(4) -0.006(4)
N3 0.072(6) 0.074(4) 0.053(4) 0.014(3) 0.024(4) -0.001(4)
N4 0.057(5) 0.062(3) 0.052(3) 0.015(3) 0.019(3) 0.006(3)
N5 0.063(6) 0.066(4) 0.042(3) 0.006(3) 0.025(3) 0.014(3)
N6 0.069(7) 0.074(4) 0.040(3) 0.006(3) 0.026(4) 0.026(4)
N7 0.059(6) 0.071(4) 0.049(3) -0.009(3) 0.026(4) -0.009(3)
N8 0.074(7) 0.068(4) 0.042(3) -0.005(3) 0.029(4) -0.011(4)
N9 0.050(5) 0.056(3) 0.056(4) -0.008(3) 0.020(3) -0.001(3)
N10 0.070(6) 0.073(4) 0.051(3) -0.001(3) 0.028(4) 0.015(4)
O1 0.075(8) 0.077(4) 0.076(5) -0.008(4) 0.043(5) -0.001(4)
C1 0.067(7) 0.055(4) 0.054(4) -0.008(3) 0.031(4) -0.006(4)
C2 0.056(5) 0.065(4) 0.048(4) 0.014(3) 0.021(4) 0.004(4)
C3 0.065(6) 0.055(4) 0.052(4) -0.010(3) 0.027(4) -0.002(4)
C4 0.076(8) 0.059(4) 0.045(4) -0.002(3) 0.029(4) 0.004(4)
C5 0.098(7) 0.101(5) 0.045(3) 0.014(3) 0.040(4) 0.044(5)
C6 0.053(6) 0.088(6) 0.076(6) 0.030(5) 0.013(5) -0.003(5)
C7 0.064(7) 0.075(6) 0.103(8) -0.030(6) 0.028(6) -0.011(5)
C8 0.104(9) 0.089(6) 0.038(4) 0.023(4) 0.045(5) 0.031(6)
C9 0.080(8) 0.082(5) 0.058(4) 0.015(4) 0.046(5) 0.024(5)
C10 0.075(9) 0.055(4) 0.058(4) 0.001(3) 0.030(5) -0.001(4)
C11 0.096(9) 0.089(6) 0.042(4) -0.018(4) 0.037(5) -0.027(6)
C12 0.047(5) 0.063(4) 0.061(4) -0.014(4) 0.017(4) 0.001(4)
C13 0.080(8) 0.089(6) 0.052(4) -0.014(4) 0.041(5) -0.018(5)
C14 0.071(7) 0.071(5) 0.065(5) -0.006(4) 0.031(5) 0.008(4)
C15 0.099(11) 0.082(6) 0.051(4) 0.005(4) 0.033(6) -0.020(6)
C16 0.089(10) 0.066(4) 0.046(4) -0.011(3) 0.027(5) 0.002(5)
C17 0.058(6) 0.072(5) 0.091(7) 0.017(5) 0.020(5) -0.008(5)
C18 0.071(7) 0.092(7) 0.100(8) 0.035(6) 0.034(6) 0.003(6)
C19 0.100(11) 0.057(4) 0.070(6) 0.000(4) 0.044(7) 0.011(5)
C20 0.098(7) 0.101(5) 0.045(3) 0.014(3) 0.040(4) 0.044(5)
loop_
_atom_type_symbol
_atom_type_description
_atom_type_scat_dispersion_real
_atom_type_scat_dispersion_imag
_atom_type_scat_source
C C 0.0000 0.0000 'International Tables Vol C Tables 4.2.6.8 and 6.1.1.4'
N N 0.0000 0.0000 'International Tables Vol C Tables 4.2.6.8 and 6.1.1.4'
Zn Zn 0.0000 0.0000 'International Tables Vol C Tables 4.2.6.8 and 6.1.1.4'
O O 0.0000 0.0000 'International Tables Vol C Tables 4.2.6.8 and 6.1.1.4'
loop_
_geom_angle_atom_site_label_1
_geom_angle_atom_site_label_2
_geom_angle_atom_site_label_3
_geom_angle
_geom_angle_site_symmetry_1
_geom_angle_site_symmetry_3
_geom_angle_publ_flag
N7 Zn1 N9 107.7(4) . . ?
N7 Zn1 N4 108.2(3) . . ?
N9 Zn1 N4 107.9(3) . . ?
N7 Zn1 N5 109.7(4) . . ?
N9 Zn1 N5 109.1(3) . . ?
N4 Zn1 N5 114.1(4) . . ?
N10 Zn2 O1 115.4(4) . 4_576 ?
N10 Zn2 N1 110.7(3) . 1_556 ?
O1 Zn2 N1 110.9(4) 4_576 1_556 ?
N10 Zn2 N8 110.2(4) . 2_556 ?
O1 Zn2 N8 99.0(4) 4_576 2_556 ?
N1 Zn2 N8 110.1(3) 1_556 2_556 ?
O1 Zn3 N2 108.4(4) . . ?
O1 Zn3 N6 110.9(4) . 2_656 ?
N2 Zn3 N6 109.3(3) . 2_656 ?
O1 Zn3 N3 111.4(4) . . ?
N2 Zn3 N3 111.1(3) . . ?
N6 Zn3 N3 105.7(4) 2_656 . ?
C4 N1 C16 107.6(7) . . ?
C4 N1 Zn2 128.6(6) . 1_554 ?
C16 N1 Zn2 123.2(6) . 1_554 ?
C4 N2 C10 106.6(6) . . ?
C4 N2 Zn3 129.3(6) . . ?
C10 N2 Zn3 124.0(6) . . ?
C2 N3 C18 104.4(8) . . ?
C2 N3 Zn3 133.3(8) . . ?
C18 N3 Zn3 120.2(7) . . ?
C2 N4 C17 106.0(8) . . ?
C2 N4 Zn1 128.0(7) . . ?
C17 N4 Zn1 126.0(6) . . ?
C5 N5 C9 108.0(7) . . ?
C5 N5 Zn1 126.9(5) . . ?
C9 N5 Zn1 124.5(7) . . ?
C5 N6 C8 104.9(7) . . ?
C5 N6 Zn3 129.7(6) . 2_646 ?
C8 N6 Zn3 125.3(5) . 2_646 ?
C13 N7 C1 104.4(7) . . ?
C13 N7 Zn1 126.7(6) . . ?
C1 N7 Zn1 128.3(5) . . ?
C1 N8 C11 106.5(8) . . ?
C1 N8 Zn2 125.8(6) . 2_546 ?
C11 N8 Zn2 121.8(6) . 2_546 ?
C3 N9 C12 105.0(7) . . ?
C3 N9 Zn1 130.9(7) . . ?
C12 N9 Zn1 124.0(5) . . ?
C3 N10 C14 103.9(7) . . ?
C3 N10 Zn2 132.1(7) . . ?
C14 N10 Zn2 124.0(7) . . ?
Zn3 O1 Zn2 150.8(6) . 4_575 ?
N8 C1 N7 111.6(6) . . ?
N8 C1 C15 125.4(8) . . ?
N7 C1 C15 123.0(8) . . ?
N3 C2 N4 113.0(9) . . ?
N3 C2 C6 123.4(8) . . ?
N4 C2 C6 123.7(8) . . ?
N9 C3 N10 114.5(9) . . ?
N9 C3 C7 122.7(8) . . ?
N10 C3 C7 122.8(8) . . ?
N1 C4 N2 111.7(7) . . ?
N1 C4 C19 125.7(7) . . ?
N2 C4 C19 122.7(7) . . ?
N5 C5 N6 111.3(6) . . ?
N5 C5 C20 126.0(8) . . ?
N6 C5 C20 122.6(8) . . ?
N6 C8 C9 109.0(6) . . ?
N5 C9 C8 106.7(7) . . ?
C16 C10 N2 106.7(7) . . ?
N8 C11 C13 107.4(7) . . ?
N9 C12 C14 106.7(8) . . ?
N7 C13 C11 109.8(8) . . ?
N10 C14 C12 109.8(9) . . ?
N1 C16 C10 107.5(7) . . ?
C18 C17 N4 107.0(10) . . ?
C17 C18 N3 109.7(11) . . ?
loop_
_geom_bond_atom_site_label_1
_geom_bond_atom_site_label_2
_geom_bond_distance
_geom_bond_site_symmetry_2
_geom_bond_publ_flag
Zn1 N7 2.024(8) . ?
Zn1 N9 2.036(8) . ?
Zn1 N4 2.041(8) . ?
Zn1 N5 2.035(8) . ?
Zn2 N10 2.010(8) . ?
Zn2 O1 2.020(9) 4_576 ?
Zn2 N1 2.039(8) 1_556 ?
Zn2 N8 2.065(10) 2_556 ?
Zn3 O1 1.991(10) . ?
Zn3 N2 2.025(7) . ?
Zn3 N6 2.026(9) 2_656 ?
Zn3 N3 2.044(8) . ?
N1 C4 1.352(9) . ?
N1 C16 1.380(11) . ?
N2 C4 1.360(10) . ?
N2 C10 1.405(10) . ?
N3 C2 1.328(11) . ?
N3 C18 1.390(14) . ?
N4 C2 1.361(10) . ?
N4 C17 1.373(13) . ?
N5 C5 1.346(11) . ?
N5 C9 1.361(9) . ?
N6 C5 1.349(10) . ?
N6 C8 1.394(10) . ?
N7 C13 1.380(9) . ?
N7 C1 1.376(11) . ?
N8 C1 1.348(10) . ?
N8 C11 1.384(10) . ?
N9 C3 1.354(9) . ?
N9 C12 1.378(12) . ?
N10 C3 1.335(11) . ?
N10 C14 1.373(13) . ?
C1 C15 1.505(10) . ?
C2 C6 1.497(13) . ?
C3 C7 1.501(13) . ?
C4 C19 1.506(11) . ?
C5 C20 1.504(9) . ?
C8 C9 1.380(12) . ?
C10 C16 1.426(10) . ?
C11 C13 1.373(13) . ?
C12 C14 1.399(11) . ?
C17 C18 1.372(12) . ?
