#------------------------------------------------------------------------------
#$Date: 2021-11-06 22:10:47 +0200 (Sat, 06 Nov 2021) $
#$Revision: 270454 $
#$URL: file:///home/coder/svn-repositories/cod/cif/1/56/24/1562412.cif $
#------------------------------------------------------------------------------
#
# This file is available in the Crystallography Open Database (COD),
# http://www.crystallography.net/
#
# All data on this site have been placed in the public domain by the
# contributors.
#
data_1562412
loop_
_publ_author_name
'Ge, Meng'
'Yang, Taimin'
'Wang, Yanzhi'
'Carraro, Francesco'
'Liang, Weibin'
'Doonan, Christian'
'Falcaro, Paolo'
'Zheng, Haoquan'
'Zou, Xiaodong'
'Huang, Zhehao'
_publ_section_title
;
 On the completeness of three-dimensional electron diffraction data for
 structural analysis of metal-organic frameworks.
;
_journal_issue                   0
_journal_name_full               'Faraday discussions'
_journal_page_first              66
_journal_page_last               80
_journal_paper_doi               10.1039/d1fd00020a
_journal_volume                  231
_journal_year                    2021
_chemical_formula_sum            'C10 N5 O0.5 Zn1.5'
_chemical_formula_weight         296.23
_space_group_crystal_system      monoclinic
_space_group_IT_number           14
_space_group_name_Hall           '-P 2ybc'
_space_group_name_H-M_alt        'P 1 21/c 1'
_audit_creation_method           SHELXL-2018/3
_audit_update_record
;
2021-02-19 deposited with the CCDC.	2021-05-04 downloaded from the CCDC.
;
_cell_angle_alpha                90
_cell_angle_beta                 118.162(11)
_cell_angle_gamma                90
_cell_formula_units_Z            8
_cell_length_a                   13.6540(19)
_cell_length_b                   14.936(3)
_cell_length_c                   14.311(2)
_cell_measurement_reflns_used    2088
_cell_measurement_temperature    293(2)
_cell_measurement_theta_max      0.899
_cell_measurement_theta_min      0.014
_cell_volume                     2573.0(8)
_computing_structure_refinement  'SHELXL-2018/3 (Sheldrick, 2018)'
_computing_structure_solution    'SHELXT 2014/5 (Sheldrick, 2014)'
_diffrn_ambient_temperature      293(2)
_diffrn_measured_fraction_theta_full 0.633
_diffrn_measured_fraction_theta_max 0.633
_diffrn_measurement_device_type  'JEOL JEM-2100 LaB6'
_diffrn_measurement_method       'Continuous rotation electron diffraction'
_diffrn_radiation_type           electron
_diffrn_radiation_wavelength     0.0251
_diffrn_reflns_av_R_equivalents  0.0909
_diffrn_reflns_av_unetI/netI     0.1182
_diffrn_reflns_Laue_measured_fraction_full 0.633
_diffrn_reflns_Laue_measured_fraction_max 0.633
_diffrn_reflns_limit_h_max       13
_diffrn_reflns_limit_h_min       -12
_diffrn_reflns_limit_k_max       13
_diffrn_reflns_limit_k_min       -15
_diffrn_reflns_limit_l_max       13
_diffrn_reflns_limit_l_min       -15
_diffrn_reflns_number            4958
_diffrn_reflns_point_group_measured_fraction_full 0.633
_diffrn_reflns_point_group_measured_fraction_max 0.633
_diffrn_reflns_theta_full        0.769
_diffrn_reflns_theta_max         0.769
_diffrn_reflns_theta_min         0.075
_diffrn_source                   'electron microscope'
_exptl_absorpt_coefficient_mu    0.000
_exptl_crystal_colour            white
_exptl_crystal_density_diffrn    1.529
_exptl_crystal_description       nano-crystals
_exptl_crystal_F_000             370
_exptl_crystal_size_max          0.0005
_exptl_crystal_size_mid          0.0005
_exptl_crystal_size_min          0.0003
_refine_diff_density_max         0.171
_refine_diff_density_min         -0.106
_refine_diff_density_rms         0.034
_refine_ls_extinction_coef       754(28)
_refine_ls_extinction_expression Fc^*^=kFc[1+0.001xFc^2^\l^3^/sin(2\q)]^-1/4^
_refine_ls_extinction_method     'SHELXL-2018/3 (Sheldrick 2018)'
_refine_ls_goodness_of_fit_ref   1.415
_refine_ls_hydrogen_treatment    undef
_refine_ls_matrix_type           full
_refine_ls_number_parameters     302
_refine_ls_number_reflns         2088
_refine_ls_number_restraints     333
_refine_ls_restrained_S_all      1.319
_refine_ls_R_factor_all          0.1930
_refine_ls_R_factor_gt           0.1528
_refine_ls_shift/su_max          0.003
_refine_ls_shift/su_mean         0.000
_refine_ls_structure_factor_coef Fsqd
_refine_ls_weighting_details
'w=1/[\s^2^(Fo^2^)+(0.2000P)^2^] where P=(Fo^2^+2Fc^2^)/3'
_refine_ls_weighting_scheme      calc
_refine_ls_wR_factor_gt          0.4052
_refine_ls_wR_factor_ref         0.4297
_reflns_Friedel_coverage         0.000
_reflns_number_gt                1221
_reflns_number_total             2088
_reflns_threshold_expression     'I > 2\s(I)'
_cod_data_source_file            d1fd00020a1.cif
_cod_data_source_block           7
_cod_depositor_comments
'Adding full bibliography for 1562402--1562412.cif.'
_cod_original_sg_symbol_H-M      'P 21/c'
_cod_original_formula_sum        'C10 N5 O0.50 Zn1.50'
_cod_database_code               1562412
_shelx_shelxl_version_number     2018/3
_shelx_space_group_comment
;
The symmetry employed for this shelxl refinement is uniquely defined
by the following loop, which should always be used as a source of
symmetry information in preference to the above space-group names.
They are only intended as comments.
;
_shelx_res_file
;
TITL 14m_a.res in P2(1)/c
    1.res
    created by SHELXL-2018/3 at 10:25:10 on 19-Feb-2021
REM Old TITL 14m in P2(1)/c

REM SHELXT solution in P2(1)/c
REM R1 0.238,  Rweak 0.111,  Alpha 0.110,  Orientation as input
REM Formula found by SHELXT:  C27 N4 Cl3

CELL  0.02510   13.654    14.936    14.311  90.000 118.162  90.000
ZERR   8.000    0.0019   0.0032   0.0024    0.000    0.011    0.000
LATT  1
SYMM -X, 1/2+Y, 1/2-Z
SFAC C  0.73070  36.99510   1.19510  11.29660   0.45630   2.81390 =
        0.12470   0.34560   0.00000   0.000   0.000   0.000   0.770  12.011
SFAC N  0.57170  28.84650   1.04250   9.05420   0.46470   2.42130 =
        0.13110   0.31670   0.00000   0.000   0.000   0.000   0.750  14.007
SFAC ZN 1.94180  54.16210   1.95010  12.51770   1.61920   2.41640 =
        0.54340   0.32950   0.00000   0.000   0.000   0.000   1.250  65.390
SFAC O  0.45480  23.78030   0.91730   7.62200   0.47190   2.14400 =
        0.13840   0.29590   0.00000   0.000   0.000   0.000   0.730  15.999
UNIT 80 40 12 4

L.S. 400
BOND $H
LIST 3
FMAP 2
PLAN 20
ACTA
DFIX  1.49  C3  C7  C5  C20  C1  C15  C2  C6  C4  C19
DFIX  1.343  C3  N10  C3  N9  C1  N7  C1  N8  C5  N5
DFIX  1.343  C5  N6  C2  N3  C2  N4  C4  N2  C4  N1
DFIX  1.37  N10  C14  N9  C12  N8  C11  N7  C13  N5  C9
DFIX  1.37  N6  C8  N3  C18  N4  C17  N2  C10  N1  C16
DFIX  1.35  C14  C12  C13  C11  C9  C8  C17  C18  C10  C16

FLAT  C7  C3  N9  C12  C14  N10
FLAT  C20  C5  N5  C9  C8  N6
FLAT  C15  C1  N7  C13  C11  N8
FLAT  C6  C2  N4  C17  C18  N3
FLAT  C19  C4  N1  C16  C10  N2
rem SHEL 999 0.9
RIGU
EADP C20 C5

WGHT    0.200000
EXTI  754.048828
FVAR       1.92769
ZN1   3    0.281588    0.371851    0.757662    11.00000    0.09614    0.07712 =
         0.05546    0.00611    0.02874    0.00963
ZN2   3    0.126063    0.647518    0.977825    11.00000    0.09636    0.09554 =
         0.05323   -0.00124    0.02786    0.01058
ZN3   3    0.301119    0.658222    0.456822    11.00000    0.09958    0.09164 =
         0.05583    0.00329    0.03223   -0.01279
N1    2    0.200003    0.613467    0.134058    11.00000    0.08127    0.10267 =
         0.04738   -0.00320    0.01531    0.01404
N2    2    0.254318    0.615339    0.306467    11.00000    0.05145    0.09544 =
         0.04444   -0.00237    0.00046   -0.00913
N3    2    0.334769    0.552131    0.558402    11.00000    0.06776    0.11263 =
         0.05680    0.01467   -0.00209   -0.01214
N4    2    0.334350    0.453598    0.676232    11.00000    0.05992    0.10369 =
         0.06428    0.02256    0.00629    0.01063
N5    2    0.406135    0.313038    0.887516    11.00000    0.11451    0.11718 =
         0.05130    0.00772    0.03693    0.02384
N6    2    0.553093    0.227009    0.986016    11.00000    0.09477    0.11961 =
         0.04192   -0.00414    0.02163    0.00367
N7    2    0.178890    0.276530    0.653851    11.00000    0.12952    0.09578 =
         0.06928   -0.01297    0.05277   -0.01970
N8    2    0.037729    0.183513    0.571792    11.00000    0.11500    0.09056 =
         0.06143   -0.00800    0.04453   -0.00190
N9    2    0.186557    0.445679    0.804781    11.00000    0.08801    0.08437 =
         0.07479   -0.01129    0.02617   -0.00315
N10   2    0.131386    0.544759    0.888160    11.00000    0.08764    0.10035 =
         0.05323   -0.00337    0.02584    0.00337
O1    4    0.180264    0.734458    0.455745    11.00000    0.10660    0.09963 =
         0.08456   -0.00194    0.04663   -0.02139
C1    1    0.105879    0.222765    0.665969    11.00000    0.11792    0.09479 =
         0.07416   -0.01699    0.04843   -0.01561
C2    1    0.271099    0.505180    0.590009    11.00000    0.06157    0.10750 =
         0.06548    0.02479    0.01048    0.01315
C3    1    0.217112    0.509187    0.880019    11.00000    0.08452    0.08544 =
         0.07513   -0.01643    0.02939   -0.00708
C4    1    0.216026    0.665162    0.217352    11.00000    0.04276    0.09332 =
         0.04498   -0.00533   -0.00234   -0.01063
C5    1    0.490966    0.263688    0.890187    11.00000    0.11241    0.15573 =
         0.05166    0.01072    0.03521    0.03413
C6    1    0.147458    0.507655    0.536132    11.00000    0.06053    0.14976 =
         0.07745    0.03837    0.00161    0.01818
C7    1    0.334568    0.539017    0.947903    11.00000    0.08635    0.11467 =
         0.10976   -0.01612    0.01071   -0.01628
C8    1    0.503001    0.248740    1.046406    11.00000    0.15875    0.11048 =
         0.06835    0.01695    0.06714    0.03128
C9    1    0.415021    0.301404    0.987458    11.00000    0.13950    0.10661 =
         0.07939    0.01818    0.06869    0.01708
C10   1    0.254670    0.526684    0.276756    11.00000    0.17141    0.10159 =
         0.06632   -0.00144    0.05048    0.01348
C11   1    0.078405    0.203692    0.502868    11.00000    0.12425    0.11393 =
         0.07291   -0.01800    0.05296   -0.02877
C12   1    0.073438    0.439976    0.758545    11.00000    0.08403    0.11136 =
         0.07407   -0.01380    0.01856   -0.00510
C13   1    0.160830    0.265296    0.552683    11.00000    0.11909    0.12946 =
         0.07970   -0.02880    0.05208   -0.02856
C14   1    0.041505    0.499622    0.813544    11.00000    0.09344    0.11254 =
         0.10473   -0.03105    0.03208   -0.01266
C15   1    0.101986    0.211865    0.767835    11.00000    0.10699    0.15470 =
         0.05405    0.00245    0.02923   -0.01638
C16   1    0.225601    0.526186    0.169499    11.00000    0.17489    0.10098 =
         0.06024    0.00442    0.04272    0.00589
C17   1    0.443317    0.471459    0.703189    11.00000    0.06202    0.11111 =
         0.07934    0.02714   -0.01068   -0.01323
C18   1    0.443075    0.531063    0.628672    11.00000    0.06460    0.10953 =
         0.09372    0.03109    0.00260   -0.00432
C19   1    0.200135    0.764696    0.214130    11.00000    0.20305    0.09278 =
         0.09569    0.00146    0.07753    0.01171
C20   1    0.517007    0.250990    0.798514    11.00000    0.11241    0.15573 =
         0.05166    0.01072    0.03521    0.03413
HKLF 4




REM  14m_a.res in P2(1)/c
REM wR2 = 0.4297, GooF = S = 1.415, Restrained GooF = 1.319 for all data
REM R1 = 0.1528 for 1221 Fo > 4sig(Fo) and 0.1930 for all 2088 data
REM 302 parameters refined using 333 restraints

END

WGHT      0.2000      0.0000

REM Highest difference peak  0.171,  deepest hole -0.106,  1-sigma level  0.034
Q1    1   0.3795  0.6361  0.5202  11.00000  0.05    0.14
Q2    1   0.2150  0.6616  1.0589  11.00000  0.05    0.13
Q3    1  -0.0009  0.2522  0.5841  11.00000  0.05    0.11
Q4    1   0.5161  0.5647  0.6235  11.00000  0.05    0.11
Q5    1   0.6383  0.2651  0.8461  11.00000  0.05    0.11
Q6    1   0.3435  0.4702  0.9400  11.00000  0.05    0.11
Q7    1   0.2072  0.8043  0.1386  11.00000  0.05    0.10
Q8    1   0.1999  0.6998  0.3999  11.00000  0.05    0.10
Q9    1   0.0124  0.5216  0.8253  11.00000  0.05    0.09
Q10   1   0.2575  0.6015  0.2190  11.00000  0.05    0.09
Q11   1   0.0632  0.1697  0.8011  11.00000  0.05    0.08
Q12   1   0.3813  0.2302  0.9408  11.00000  0.05    0.08
Q13   1   0.5800  0.2520  1.1201  11.00000  0.05    0.08
Q14   1   0.5993  0.5314  0.7036  11.00000  0.05    0.08
Q15   1   0.1141  0.4769  0.2006  11.00000  0.05    0.08
Q16   1   0.0918  0.3104  0.6395  11.00000  0.05    0.07
Q17   1   0.1195  0.2220  0.6027  11.00000  0.05    0.07
Q18   1   0.2216  0.4450  0.8989  11.00000  0.05    0.07
Q19   1  -0.0562  0.1936  0.4813  11.00000  0.05    0.07
Q20   1   0.0491  0.6148  0.9177  11.00000  0.05    0.07
;
_shelx_res_checksum              14716
loop_
_space_group_symop_operation_xyz
'x, y, z'
'-x, y+1/2, -z+1/2'
'-x, -y, -z'
'x, -y-1/2, z-1/2'
loop_
_atom_site_label
_atom_site_type_symbol
_atom_site_fract_x
_atom_site_fract_y
_atom_site_fract_z
_atom_site_U_iso_or_equiv
_atom_site_adp_type
_atom_site_occupancy
_atom_site_site_symmetry_order
_atom_site_calc_flag
_atom_site_refinement_flags_posn
_atom_site_refinement_flags_adp
_atom_site_refinement_flags_occupancy
_atom_site_disorder_assembly
_atom_site_disorder_group
Zn1 Zn 0.2816(7) 0.3719(3) 0.7577(4) 0.079(3) Uani 1 1 d . . . . .
Zn2 Zn 0.1261(8) 0.6475(3) 0.9778(5) 0.085(3) Uani 1 1 d . . . . .
Zn3 Zn 0.3011(8) 0.6582(3) 0.4568(4) 0.084(3) Uani 1 1 d . . . . .
N1 N 0.2000(18) 0.6135(8) 0.1341(10) 0.083(8) Uani 1 1 d D . . . .
N2 N 0.2543(18) 0.6153(7) 0.3065(10) 0.073(7) Uani 1 1 d D . . . .
N3 N 0.3348(19) 0.5521(10) 0.5584(13) 0.092(6) Uani 1 1 d D . . . .
N4 N 0.3344(19) 0.4536(9) 0.6762(11) 0.085(6) Uani 1 1 d D . . . .
N5 N 0.4061(18) 0.3130(9) 0.8875(10) 0.095(6) Uani 1 1 d D . . . .
N6 N 0.5531(17) 0.2270(8) 0.9860(11) 0.090(6) Uani 1 1 d D . . . .
N7 N 0.1789(18) 0.2765(8) 0.6539(11) 0.096(6) Uani 1 1 d D . . . .
N8 N 0.0377(17) 0.1835(8) 0.5718(11) 0.088(6) Uani 1 1 d D . . . .
N9 N 0.187(2) 0.4457(8) 0.8048(13) 0.087(5) Uani 1 1 d D . . . .
N10 N 0.1314(16) 0.5448(9) 0.8882(11) 0.083(5) Uani 1 1 d D . . . .
O1 O 0.180(2) 0.7345(8) 0.4557(13) 0.096(7) Uani 1 1 d . . . . .
C1 C 0.1059(15) 0.2228(8) 0.6660(10) 0.094(7) Uani 1 1 d D . . . .
C2 C 0.2711(19) 0.5052(8) 0.5900(11) 0.086(6) Uani 1 1 d D . . . .
C3 C 0.2171(18) 0.5092(8) 0.8800(11) 0.085(5) Uani 1 1 d D . . . .
C4 C 0.2160(13) 0.6652(7) 0.2174(9) 0.070(8) Uani 1 1 d D . . . .
C5 C 0.4910(15) 0.2637(9) 0.8902(10) 0.108(6) Uani 1 1 d D . . . .
C6 C 0.147(2) 0.5077(11) 0.5361(14) 0.108(8) Uani 1 1 d D . . . .
C7 C 0.335(2) 0.5390(11) 0.9479(15) 0.118(7) Uani 1 1 d D . . . .
C8 C 0.5030(19) 0.2487(10) 1.0464(13) 0.107(8) Uani 1 1 d D . . . .
C9 C 0.4150(19) 0.3014(10) 0.9875(12) 0.102(7) Uani 1 1 d D . . . .
C10 C 0.255(2) 0.5267(9) 0.2768(12) 0.115(12) Uani 1 1 d D . . . .
C11 C 0.0784(19) 0.2037(10) 0.5029(13) 0.101(8) Uani 1 1 d D . . . .
C12 C 0.073(2) 0.4400(10) 0.7585(15) 0.097(6) Uani 1 1 d D . . . .
C13 C 0.1608(19) 0.2653(11) 0.5527(12) 0.107(8) Uani 1 1 d D . . . .
C14 C 0.042(2) 0.4996(10) 0.8135(15) 0.110(6) Uani 1 1 d D . . . .
C15 C 0.102(2) 0.2119(11) 0.7678(13) 0.109(11) Uani 1 1 d D . . . .
C16 C 0.226(2) 0.5262(9) 0.1695(12) 0.117(12) Uani 1 1 d D . . . .
C17 C 0.443(2) 0.4715(10) 0.7032(14) 0.102(7) Uani 1 1 d D . . . .
C18 C 0.443(2) 0.5311(10) 0.6287(15) 0.103(7) Uani 1 1 d D . . . .
C19 C 0.200(2) 0.7647(8) 0.2141(15) 0.128(13) Uani 1 1 d D . . . .
C20 C 0.517(2) 0.2510(11) 0.7985(13) 0.108(6) Uani 1 1 d D . . . .
loop_
_atom_site_aniso_label
_atom_site_aniso_U_11
_atom_site_aniso_U_22
_atom_site_aniso_U_33
_atom_site_aniso_U_23
_atom_site_aniso_U_13
_atom_site_aniso_U_12
Zn1 0.096(9) 0.077(3) 0.055(3) 0.006(2) 0.029(5) 0.010(3)
Zn2 0.096(11) 0.096(3) 0.053(3) -0.001(2) 0.028(6) 0.011(4)
Zn3 0.100(10) 0.092(3) 0.056(4) 0.003(2) 0.032(5) -0.013(3)
N1 0.08(3) 0.103(7) 0.047(7) -0.003(5) 0.015(14) 0.014(9)
N2 0.05(2) 0.095(6) 0.044(6) -0.002(5) 0.000(11) -0.009(8)
N3 0.07(2) 0.113(9) 0.057(10) 0.015(7) -0.002(12) -0.012(10)
N4 0.060(19) 0.104(8) 0.064(10) 0.023(7) 0.006(12) 0.011(9)
N5 0.115(17) 0.117(9) 0.051(7) 0.008(6) 0.037(9) 0.024(10)
N6 0.095(19) 0.120(9) 0.042(7) -0.004(6) 0.022(10) 0.004(10)
N7 0.130(19) 0.096(8) 0.069(8) -0.013(6) 0.053(10) -0.020(9)
N8 0.115(19) 0.091(7) 0.061(8) -0.008(6) 0.045(11) -0.002(8)
N9 0.088(15) 0.084(7) 0.075(10) -0.011(6) 0.026(12) -0.003(9)
N10 0.088(18) 0.100(8) 0.053(9) -0.003(6) 0.026(11) 0.003(8)
O1 0.11(2) 0.100(8) 0.085(11) -0.002(7) 0.047(15) -0.021(8)
C1 0.12(2) 0.095(9) 0.074(9) -0.017(7) 0.048(12) -0.016(10)
C2 0.062(19) 0.107(9) 0.065(11) 0.025(8) 0.010(13) 0.013(11)
C3 0.085(16) 0.085(8) 0.075(11) -0.016(7) 0.029(11) -0.007(9)
C4 0.04(3) 0.093(6) 0.045(7) -0.005(5) -0.002(12) -0.011(8)
C5 0.11(2) 0.156(9) 0.052(7) 0.011(7) 0.035(11) 0.034(10)
C6 0.06(2) 0.150(13) 0.077(14) 0.038(11) 0.002(15) 0.018(15)
C7 0.086(18) 0.115(11) 0.110(15) -0.016(10) 0.011(14) -0.016(12)
C8 0.16(3) 0.110(10) 0.068(10) 0.017(8) 0.067(14) 0.031(13)
C9 0.14(2) 0.107(10) 0.079(10) 0.018(8) 0.069(14) 0.017(12)
C10 0.17(4) 0.102(7) 0.066(10) -0.001(7) 0.050(18) 0.013(11)
C11 0.12(2) 0.114(10) 0.073(10) -0.018(8) 0.053(14) -0.029(11)
C12 0.084(16) 0.111(10) 0.074(12) -0.014(8) 0.019(13) -0.005(11)
C13 0.12(3) 0.129(12) 0.080(10) -0.029(9) 0.052(14) -0.029(12)
C14 0.093(16) 0.113(10) 0.105(14) -0.031(9) 0.032(13) -0.013(11)
C15 0.11(4) 0.155(13) 0.054(11) 0.002(9) 0.029(19) -0.016(14)
C16 0.17(4) 0.101(7) 0.060(9) 0.004(7) 0.043(18) 0.006(11)
C17 0.062(19) 0.111(10) 0.079(12) 0.027(8) -0.011(13) -0.013(12)
C18 0.06(2) 0.110(10) 0.094(15) 0.031(9) 0.003(15) -0.004(12)
C19 0.20(4) 0.093(7) 0.096(15) 0.001(8) 0.08(2) 0.012(12)
C20 0.11(2) 0.156(9) 0.052(7) 0.011(7) 0.035(11) 0.034(10)
loop_
_atom_type_symbol
_atom_type_description
_atom_type_scat_dispersion_real
_atom_type_scat_dispersion_imag
_atom_type_scat_source
C C 0.0000 0.0000 'International Tables Vol C Tables 4.2.6.8 and 6.1.1.4'
N N 0.0000 0.0000 'International Tables Vol C Tables 4.2.6.8 and 6.1.1.4'
Zn Zn 0.0000 0.0000 'International Tables Vol C Tables 4.2.6.8 and 6.1.1.4'
O O 0.0000 0.0000 'International Tables Vol C Tables 4.2.6.8 and 6.1.1.4'
loop_
_geom_angle_atom_site_label_1
_geom_angle_atom_site_label_2
_geom_angle_atom_site_label_3
_geom_angle
_geom_angle_site_symmetry_1
_geom_angle_site_symmetry_3
_geom_angle_publ_flag
N7 Zn1 N9 106.8(8) . . ?
N7 Zn1 N4 107.8(6) . . ?
N9 Zn1 N4 108.4(6) . . ?
N7 Zn1 N5 110.6(7) . . ?
N9 Zn1 N5 108.6(6) . . ?
N4 Zn1 N5 114.3(9) . . ?
N10 Zn2 O1 116.3(6) . 4_576 ?
N10 Zn2 N1 111.1(6) . 1_556 ?
O1 Zn2 N1 111.5(8) 4_576 1_556 ?
N10 Zn2 N8 109.6(8) . 2_556 ?
O1 Zn2 N8 97.9(8) 4_576 2_556 ?
N1 Zn2 N8 109.7(7) 1_556 2_556 ?
O1 Zn3 N2 108.9(8) . . ?
O1 Zn3 N6 111.2(7) . 2_656 ?
N2 Zn3 N6 110.0(7) . 2_656 ?
O1 Zn3 N3 110.7(7) . . ?
N2 Zn3 N3 111.1(5) . . ?
N6 Zn3 N3 104.8(8) 2_656 . ?
C4 N1 C16 107.9(11) . . ?
C4 N1 Zn2 128.1(9) . 1_554 ?
C16 N1 Zn2 123.1(9) . 1_554 ?
C4 N2 C10 106.9(10) . . ?
C4 N2 Zn3 127.8(9) . . ?
C10 N2 Zn3 125.3(9) . . ?
C2 N3 C18 106.0(15) . . ?
C2 N3 Zn3 132.4(15) . . ?
C18 N3 Zn3 119.9(12) . . ?
C2 N4 C17 106.5(16) . . ?
C2 N4 Zn1 127.7(16) . . ?
C17 N4 Zn1 125.7(12) . . ?
C5 N5 C9 104.1(13) . . ?
C5 N5 Zn1 126.5(9) . . ?
C9 N5 Zn1 128.6(14) . . ?
C5 N6 C8 106.5(15) . . ?
C5 N6 Zn3 130.0(10) . 2_646 ?
C8 N6 Zn3 123.4(11) . 2_646 ?
C13 N7 C1 106.8(13) . . ?
C13 N7 Zn1 125.0(11) . . ?
C1 N7 Zn1 127.6(8) . . ?
C1 N8 C11 107.3(14) . . ?
C1 N8 Zn2 125.1(10) . 2_546 ?
C11 N8 Zn2 123.2(13) . 2_546 ?
C3 N9 C12 106.5(17) . . ?
C3 N9 Zn1 129.7(18) . . ?
C12 N9 Zn1 123.7(11) . . ?
C3 N10 C14 103.6(14) . . ?
C3 N10 Zn2 130.6(13) . . ?
C14 N10 Zn2 125.6(13) . . ?
Zn3 O1 Zn2 150.4(12) . 4_575 ?
N8 C1 N7 109.3(11) . . ?
N8 C1 C15 126.8(14) . . ?
N7 C1 C15 123.9(13) . . ?
N3 C2 N4 111.3(18) . . ?
N3 C2 C6 124.4(14) . . ?
N4 C2 C6 124.2(16) . . ?
N9 C3 N10 113.3(18) . . ?
N9 C3 C7 124.2(18) . . ?
N10 C3 C7 122.5(15) . . ?
N1 C4 N2 110.4(11) . . ?
N1 C4 C19 125.4(11) . . ?
N2 C4 C19 124.1(11) . . ?
N5 C5 N6 111.7(12) . . ?
N5 C5 C20 125.8(14) . . ?
N6 C5 C20 122.5(15) . . ?
N6 C8 C9 107.8(13) . . ?
N5 C9 C8 109.7(14) . . ?
C16 C10 N2 107.6(11) . . ?
N8 C11 C13 106.6(13) . . ?
N9 C12 C14 105.7(17) . . ?
N7 C13 C11 109.3(14) . . ?
N10 C14 C12 110.7(18) . . ?
N1 C16 C10 106.9(11) . . ?
C18 C17 N4 107.4(19) . . ?
C17 C18 N3 108.7(19) . . ?
loop_
_geom_bond_atom_site_label_1
_geom_bond_atom_site_label_2
_geom_bond_distance
_geom_bond_site_symmetry_2
_geom_bond_publ_flag
Zn1 N7 2.058(16) . ?
Zn1 N9 2.045(19) . ?
Zn1 N4 2.040(17) . ?
Zn1 N5 2.033(18) . ?
Zn2 N10 2.024(13) . ?
Zn2 O1 1.994(15) 4_576 ?
Zn2 N1 2.036(14) 1_556 ?
Zn2 N8 2.07(2) 2_556 ?
Zn3 O1 2.00(2) . ?
Zn3 N2 2.037(12) . ?
Zn3 N6 2.04(2) 2_656 ?
Zn3 N3 2.051(15) . ?
N1 C4 1.349(13) . ?
N1 C16 1.383(14) . ?
N2 C4 1.351(14) . ?
N2 C10 1.391(14) . ?
N3 C2 1.350(16) . ?
N3 C18 1.376(18) . ?
N4 C2 1.362(16) . ?
N4 C17 1.375(18) . ?
N5 C5 1.358(16) . ?
N5 C9 1.388(13) . ?
N6 C5 1.343(16) . ?
N6 C8 1.370(14) . ?
N7 C13 1.359(14) . ?
N7 C1 1.353(15) . ?
N8 C1 1.357(16) . ?
N8 C11 1.375(14) . ?
N9 C3 1.345(15) . ?
N9 C12 1.366(18) . ?
N10 C3 1.340(16) . ?
N10 C14 1.365(18) . ?
C1 C15 1.493(13) . ?
C2 C6 1.489(18) . ?
C3 C7 1.498(18) . ?
C4 C19 1.500(14) . ?
C5 C20 1.524(14) . ?
C8 C9 1.348(18) . ?
C10 C16 1.392(15) . ?
C11 C13 1.365(18) . ?
C12 C14 1.388(15) . ?
C17 C18 1.388(15) . ?
