#------------------------------------------------------------------------------
#$Date: 2021-11-06 22:10:47 +0200 (Sat, 06 Nov 2021) $
#$Revision: 270454 $
#$URL: file:///home/coder/svn-repositories/cod/cif/1/56/24/1562404.cif $
#------------------------------------------------------------------------------
#
# This file is available in the Crystallography Open Database (COD),
# http://www.crystallography.net/
#
# All data on this site have been placed in the public domain by the
# contributors.
#
data_1562404
loop_
_publ_author_name
'Ge, Meng'
'Yang, Taimin'
'Wang, Yanzhi'
'Carraro, Francesco'
'Liang, Weibin'
'Doonan, Christian'
'Falcaro, Paolo'
'Zheng, Haoquan'
'Zou, Xiaodong'
'Huang, Zhehao'
_publ_section_title
;
 On the completeness of three-dimensional electron diffraction data for
 structural analysis of metal-organic frameworks.
;
_journal_issue                   0
_journal_name_full               'Faraday discussions'
_journal_page_first              66
_journal_page_last               80
_journal_paper_doi               10.1039/d1fd00020a
_journal_volume                  231
_journal_year                    2021
_chemical_formula_sum            'C10 N5 O0.5 Zn1.5'
_chemical_formula_weight         296.23
_space_group_crystal_system      monoclinic
_space_group_IT_number           14
_space_group_name_Hall           '-P 2ybc'
_space_group_name_H-M_alt        'P 1 21/c 1'
_audit_creation_method           SHELXL-2018/3
_audit_update_record
;
2021-02-19 deposited with the CCDC.	2021-05-04 downloaded from the CCDC.
;
_cell_angle_alpha                90
_cell_angle_beta                 118.162(11)
_cell_angle_gamma                90
_cell_formula_units_Z            8
_cell_length_a                   13.6540(19)
_cell_length_b                   14.936(3)
_cell_length_c                   14.311(2)
_cell_measurement_reflns_used    4654
_cell_measurement_temperature    293(2)
_cell_measurement_theta_max      0.899
_cell_measurement_theta_min      0.014
_cell_volume                     2573.0(8)
_computing_structure_refinement  'SHELXL-2018/3 (Sheldrick, 2018)'
_computing_structure_solution    'SHELXT 2014/5 (Sheldrick, 2014)'
_diffrn_ambient_temperature      293(2)
_diffrn_measured_fraction_theta_full 0.847
_diffrn_measured_fraction_theta_max 0.818
_diffrn_measurement_device_type  'JEOL JEM-2100 LaB6'
_diffrn_measurement_method       'Continuous rotation electron diffraction'
_diffrn_radiation_type           electron
_diffrn_radiation_wavelength     0.0251
_diffrn_reflns_av_R_equivalents  0.1517
_diffrn_reflns_av_unetI/netI     0.1348
_diffrn_reflns_Laue_measured_fraction_full 0.847
_diffrn_reflns_Laue_measured_fraction_max 0.818
_diffrn_reflns_limit_h_max       16
_diffrn_reflns_limit_h_min       -16
_diffrn_reflns_limit_k_max       18
_diffrn_reflns_limit_k_min       -18
_diffrn_reflns_limit_l_max       18
_diffrn_reflns_limit_l_min       -18
_diffrn_reflns_number            19372
_diffrn_reflns_point_group_measured_fraction_full 0.847
_diffrn_reflns_point_group_measured_fraction_max 0.818
_diffrn_reflns_theta_full        0.863
_diffrn_reflns_theta_max         0.922
_diffrn_reflns_theta_min         0.075
_diffrn_source                   'electron microscope'
_exptl_absorpt_coefficient_mu    0.000
_exptl_crystal_colour            white
_exptl_crystal_density_diffrn    1.529
_exptl_crystal_description       nano-crystals
_exptl_crystal_F_000             370
_exptl_crystal_size_max          0.0005
_exptl_crystal_size_mid          0.0005
_exptl_crystal_size_min          0.0003
_refine_diff_density_max         0.272
_refine_diff_density_min         -0.185
_refine_diff_density_rms         0.058
_refine_ls_extinction_coef       1413(17)
_refine_ls_extinction_expression Fc^*^=kFc[1+0.001xFc^2^\l^3^/sin(2\q)]^-1/4^
_refine_ls_extinction_method     'SHELXL-2018/3 (Sheldrick 2018)'
_refine_ls_goodness_of_fit_ref   1.582
_refine_ls_hydrogen_treatment    undef
_refine_ls_matrix_type           full
_refine_ls_number_parameters     302
_refine_ls_number_reflns         4654
_refine_ls_number_restraints     333
_refine_ls_restrained_S_all      1.541
_refine_ls_R_factor_all          0.2109
_refine_ls_R_factor_gt           0.1816
_refine_ls_shift/su_max          0.030
_refine_ls_shift/su_mean         0.000
_refine_ls_structure_factor_coef Fsqd
_refine_ls_weighting_details
'w=1/[\s^2^(Fo^2^)+(0.2000P)^2^] where P=(Fo^2^+2Fc^2^)/3'
_refine_ls_weighting_scheme      calc
_refine_ls_wR_factor_gt          0.4580
_refine_ls_wR_factor_ref         0.4730
_reflns_Friedel_coverage         0.000
_reflns_number_gt                3306
_reflns_number_total             4654
_reflns_threshold_expression     'I > 2\s(I)'
_cod_data_source_file            d1fd00020a1.cif
_cod_data_source_block           M_A3
_cod_depositor_comments
'Adding full bibliography for 1562402--1562412.cif.'
_cod_original_sg_symbol_H-M      'P 21/c'
_cod_original_formula_sum        'C10 N5 O0.50 Zn1.50'
_cod_database_code               1562404
_shelx_shelxl_version_number     2018/3
_shelx_space_group_comment
;
The symmetry employed for this shelxl refinement is uniquely defined
by the following loop, which should always be used as a source of
symmetry information in preference to the above space-group names.
They are only intended as comments.
;
_shelx_res_file
;
TITL 14m_a.res in P2(1)/c
    4.res
    created by SHELXL-2018/3 at 10:12:12 on 19-Feb-2021
REM Old TITL 14m in P2(1)/c

REM SHELXT solution in P2(1)/c
REM R1 0.238,  Rweak 0.111,  Alpha 0.110,  Orientation as input
REM Formula found by SHELXT:  C27 N4 Cl3

CELL  0.02510   13.654    14.936    14.311  90.000 118.162  90.000
ZERR   8.000    0.0019   0.0032   0.0024    0.000    0.011    0.000
LATT  1
SYMM -X, 1/2+Y, 1/2-Z
SFAC C  0.73070  36.99510   1.19510  11.29660   0.45630   2.81390 =
        0.12470   0.34560   0.00000   0.000   0.000   0.000   0.770  12.011
SFAC N  0.57170  28.84650   1.04250   9.05420   0.46470   2.42130 =
        0.13110   0.31670   0.00000   0.000   0.000   0.000   0.750  14.007
SFAC ZN 1.94180  54.16210   1.95010  12.51770   1.61920   2.41640 =
        0.54340   0.32950   0.00000   0.000   0.000   0.000   1.250  65.390
SFAC O  0.45480  23.78030   0.91730   7.62200   0.47190   2.14400 =
        0.13840   0.29590   0.00000   0.000   0.000   0.000   0.730  15.999
UNIT 80 40 12 4

L.S. 500
BOND $H
LIST 3
FMAP 2
PLAN 20
ACTA
DFIX  1.49  C3  C7  C5  C20  C1  C15  C2  C6  C4  C19
DFIX  1.343  C3  N10  C3  N9  C1  N7  C1  N8  C5  N5
DFIX  1.343  C5  N6  C2  N3  C2  N4  C4  N2  C4  N1
DFIX  1.37  N10  C14  N9  C12  N8  C11  N7  C13  N5  C9
DFIX  1.37  N6  C8  N3  C18  N4  C17  N2  C10  N1  C16
DFIX  1.35  C14  C12  C13  C11  C9  C8  C17  C18  C10  C16

FLAT  C7  C3  N9  C12  C14  N10
FLAT  C20  C5  N5  C9  C8  N6
FLAT  C15  C1  N7  C13  C11  N8
FLAT  C6  C2  N4  C17  C18  N3
FLAT  C19  C4  N1  C16  C10  N2
rem SHEL 999 0.9
RIGU
EADP C20 C5

WGHT    0.200000
EXTI 1413.045288
FVAR      17.88676
ZN1   3    0.283749    0.371562    0.759258    11.00000    0.04507    0.03942 =
         0.03467    0.00088    0.01775    0.00367
ZN2   3    0.123193    0.647743    0.975958    11.00000    0.05140    0.05681 =
         0.03757   -0.00303    0.02017    0.00908
ZN3   3    0.300289    0.657444    0.457305    11.00000    0.04579    0.05589 =
         0.03918    0.00353    0.01956   -0.00578
N1    2    0.196882    0.613679    0.133066    11.00000    0.06920    0.06350 =
         0.04063   -0.00011    0.02572    0.00965
N2    2    0.254592    0.614452    0.307743    11.00000    0.06746    0.05366 =
         0.03704   -0.00392    0.02445   -0.00408
N3    2    0.333357    0.550967    0.557938    11.00000    0.06119    0.06355 =
         0.04972    0.01542    0.02567    0.00546
N4    2    0.336837    0.454654    0.678738    11.00000    0.05311    0.05176 =
         0.04337    0.01938    0.01783    0.00793
N5    2    0.408806    0.311900    0.888056    11.00000    0.06323    0.05214 =
         0.03764    0.00361    0.02734    0.01747
N6    2    0.554769    0.226892    0.986715    11.00000    0.06222    0.06535 =
         0.03595    0.01205    0.02413    0.02444
N7    2    0.184676    0.276344    0.656524    11.00000    0.06051    0.05951 =
         0.04501   -0.00805    0.02885   -0.00922
N8    2    0.039393    0.181888    0.573753    11.00000    0.07837    0.05285 =
         0.04333   -0.01067    0.03610   -0.01613
N9    2    0.188915    0.445060    0.806661    11.00000    0.04605    0.04822 =
         0.05120   -0.00812    0.02137    0.00103
N10   2    0.130483    0.547182    0.888305    11.00000    0.05527    0.06509 =
         0.04651   -0.00650    0.02783    0.01315
O1    4    0.180905    0.733792    0.455301    11.00000    0.06712    0.07470 =
         0.05925   -0.00691    0.03274   -0.00027
C1    1    0.108883    0.221994    0.666344    11.00000    0.06614    0.05221 =
         0.05189   -0.01482    0.03257   -0.00979
C2    1    0.272315    0.504385    0.590888    11.00000    0.04181    0.06445 =
         0.04464    0.01863    0.01473    0.00717
C3    1    0.216436    0.509709    0.879339    11.00000    0.04342    0.04721 =
         0.04870   -0.01416    0.01583    0.00043
C4    1    0.215722    0.664802    0.216662    11.00000    0.05405    0.05111 =
         0.03974    0.00184    0.02331    0.00001
C5    1    0.492362    0.265069    0.890579    11.00000    0.08354    0.08794 =
         0.03864    0.01378    0.03448    0.04186
C6    1    0.148707    0.507425    0.536311    11.00000    0.04482    0.10021 =
         0.08799    0.04443    0.00872   -0.00020
C7    1    0.334339    0.542356    0.946890    11.00000    0.04439    0.07732 =
         0.10502   -0.02573    0.01670   -0.01328
C8    1    0.505733    0.250808    1.047264    11.00000    0.07923    0.07765 =
         0.02874    0.01576    0.03171    0.01598
C9    1    0.412951    0.302286    0.984651    11.00000    0.06183    0.07988 =
         0.04611    0.01333    0.03117    0.01906
C10   1    0.262722    0.526079    0.278522    11.00000    0.04706    0.05007 =
         0.05274   -0.00264    0.02240   -0.00130
C11   1    0.077956    0.204582    0.503991    11.00000    0.08295    0.08582 =
         0.03241   -0.00930    0.02832   -0.02720
C12   1    0.073837    0.438960    0.761749    11.00000    0.04453    0.05302 =
         0.05095   -0.01301    0.01120   -0.00163
C13   1    0.167933    0.261795    0.555425    11.00000    0.05427    0.07668 =
         0.04678   -0.00911    0.02901   -0.00870
C14   1    0.038549    0.501558    0.813094    11.00000    0.05614    0.07321 =
         0.06279   -0.00960    0.02482    0.00547
C15   1    0.102636    0.212633    0.768792    11.00000    0.08049    0.07566 =
         0.04659    0.00547    0.02988   -0.01304
C16   1    0.224238    0.526349    0.168528    11.00000    0.08955    0.05871 =
         0.04391   -0.01535    0.02637   -0.00278
C17   1    0.444623    0.470119    0.703255    11.00000    0.05214    0.06493 =
         0.08240    0.02683    0.01213   -0.01043
C18   1    0.442326    0.529646    0.626961    11.00000    0.05421    0.08916 =
         0.08868    0.03452    0.02899   -0.00215
C19   1    0.198312    0.763837    0.212735    11.00000    0.10791    0.05236 =
         0.06217    0.00266    0.04371    0.01496
C20   1    0.517406    0.252459    0.799799    11.00000    0.08354    0.08794 =
         0.03864    0.01378    0.03448    0.04186
HKLF 4




REM  14m_a.res in P2(1)/c
REM wR2 = 0.4730, GooF = S = 1.582, Restrained GooF = 1.541 for all data
REM R1 = 0.1816 for 3306 Fo > 4sig(Fo) and 0.2109 for all 4654 data
REM 302 parameters refined using 333 restraints

END

WGHT      0.1835      1.1407

REM Highest difference peak  0.272,  deepest hole -0.185,  1-sigma level  0.058
Q1    1   0.3183  0.3598  0.8038  11.00000  0.05    0.27
Q2    1   0.2117  0.3594  0.7349  11.00000  0.05    0.26
Q3    1   0.1723  0.6654  1.0273  11.00000  0.05    0.23
Q4    1   0.3687  0.3505  0.7886  11.00000  0.05    0.23
Q5    1   0.0605  0.6667  0.9629  11.00000  0.05    0.22
Q6    1   0.3776  0.6590  0.5015  11.00000  0.05    0.20
Q7    1   0.4682  0.2851  0.7335  11.00000  0.05    0.19
Q8    1   0.1499  0.2705  0.8305  11.00000  0.05    0.18
Q9    1   0.2302  0.6771  0.4375  11.00000  0.05    0.17
Q10   1   0.5380  0.2357  1.1151  11.00000  0.05    0.17
Q11   1   0.4519  0.2469  0.9671  11.00000  0.05    0.17
Q12   1   0.5299  0.1928  0.7770  11.00000  0.05    0.17
Q13   1   0.2119  0.2924  0.5203  11.00000  0.05    0.17
Q14   1   0.3827  0.5328  0.6242  11.00000  0.05    0.16
Q15   1   0.0291  0.1875  0.7656  11.00000  0.05    0.16
Q16   1   0.4654  0.2925  0.8715  11.00000  0.05    0.16
Q17   1   0.3994  0.5184  0.9603  11.00000  0.05    0.16
Q18   1   0.2401  0.5527  0.9307  11.00000  0.05    0.16
Q19   1   0.2904  0.4765  0.3361  11.00000  0.05    0.16
Q20   1   0.3038  0.6072  0.9771  11.00000  0.05    0.15
;
_shelx_res_checksum              32474
loop_
_space_group_symop_operation_xyz
'x, y, z'
'-x, y+1/2, -z+1/2'
'-x, -y, -z'
'x, -y-1/2, z-1/2'
loop_
_atom_site_label
_atom_site_type_symbol
_atom_site_fract_x
_atom_site_fract_y
_atom_site_fract_z
_atom_site_U_iso_or_equiv
_atom_site_adp_type
_atom_site_occupancy
_atom_site_site_symmetry_order
_atom_site_calc_flag
_atom_site_refinement_flags_posn
_atom_site_refinement_flags_adp
_atom_site_refinement_flags_occupancy
_atom_site_disorder_assembly
_atom_site_disorder_group
Zn1 Zn 0.2837(3) 0.37156(16) 0.7593(2) 0.0402(8) Uani 1 1 d . . . . .
Zn2 Zn 0.1232(3) 0.64774(19) 0.9760(2) 0.0489(9) Uani 1 1 d . . . . .
Zn3 Zn 0.3003(3) 0.65744(19) 0.4573(2) 0.0471(9) Uani 1 1 d . . . . .
N1 N 0.1969(10) 0.6137(5) 0.1331(6) 0.058(3) Uani 1 1 d D . . . .
N2 N 0.2546(9) 0.6145(5) 0.3077(6) 0.053(3) Uani 1 1 d D . . . .
N3 N 0.3334(9) 0.5510(6) 0.5579(7) 0.058(2) Uani 1 1 d D . . . .
N4 N 0.3368(9) 0.4547(5) 0.6787(6) 0.051(2) Uani 1 1 d D . . . .
N5 N 0.4088(9) 0.3119(5) 0.8881(6) 0.050(2) Uani 1 1 d D . . . .
N6 N 0.5548(9) 0.2269(6) 0.9867(6) 0.054(3) Uani 1 1 d D . . . .
N7 N 0.1847(9) 0.2763(5) 0.6565(6) 0.053(2) Uani 1 1 d D . . . .
N8 N 0.0394(9) 0.1819(5) 0.5738(6) 0.055(3) Uani 1 1 d D . . . .
N9 N 0.1889(9) 0.4451(5) 0.8067(6) 0.049(2) Uani 1 1 d D . . . .
N10 N 0.1305(9) 0.5472(6) 0.8883(7) 0.054(2) Uani 1 1 d D . . . .
O1 O 0.1809(11) 0.7338(6) 0.4553(7) 0.066(3) Uani 1 1 d . . . . .
C1 C 0.1089(9) 0.2220(5) 0.6663(7) 0.055(3) Uani 1 1 d D . . . .
C2 C 0.2723(9) 0.5044(6) 0.5909(7) 0.053(2) Uani 1 1 d D . . . .
C3 C 0.2164(9) 0.5097(5) 0.8793(6) 0.049(2) Uani 1 1 d D . . . .
C4 C 0.2157(8) 0.6648(5) 0.2167(6) 0.048(3) Uani 1 1 d D . . . .
C5 C 0.4924(9) 0.2651(6) 0.8906(6) 0.068(3) Uani 1 1 d D . . . .
C6 C 0.1487(12) 0.5074(9) 0.5363(10) 0.087(4) Uani 1 1 d D . . . .
C7 C 0.3343(12) 0.5424(8) 0.9469(10) 0.083(4) Uani 1 1 d D . . . .
C8 C 0.5057(10) 0.2508(7) 1.0473(6) 0.059(3) Uani 1 1 d D . . . .
C9 C 0.4130(11) 0.3023(7) 0.9847(7) 0.060(3) Uani 1 1 d D . . . .
C10 C 0.2627(10) 0.5261(6) 0.2785(7) 0.050(3) Uani 1 1 d D . . . .
C11 C 0.0780(11) 0.2046(7) 0.5040(7) 0.067(4) Uani 1 1 d D . . . .
C12 C 0.0738(10) 0.4390(6) 0.7617(7) 0.054(2) Uani 1 1 d D . . . .
C13 C 0.1679(10) 0.2618(7) 0.5554(7) 0.057(3) Uani 1 1 d D . . . .
C14 C 0.0385(11) 0.5016(7) 0.8131(8) 0.065(3) Uani 1 1 d D . . . .
C15 C 0.1026(12) 0.2126(7) 0.7688(8) 0.068(4) Uani 1 1 d D . . . .
C16 C 0.2242(12) 0.5263(6) 0.1685(7) 0.066(4) Uani 1 1 d D . . . .
C17 C 0.4446(11) 0.4701(7) 0.7033(9) 0.074(3) Uani 1 1 d D . . . .
C18 C 0.4423(12) 0.5296(8) 0.6270(9) 0.079(4) Uani 1 1 d D . . . .
C19 C 0.1983(12) 0.7638(6) 0.2127(8) 0.073(4) Uani 1 1 d D . . . .
C20 C 0.5174(12) 0.2525(7) 0.7998(7) 0.068(3) Uani 1 1 d D . . . .
loop_
_atom_site_aniso_label
_atom_site_aniso_U_11
_atom_site_aniso_U_22
_atom_site_aniso_U_33
_atom_site_aniso_U_23
_atom_site_aniso_U_13
_atom_site_aniso_U_12
Zn1 0.045(2) 0.0394(12) 0.0347(12) 0.0009(9) 0.0177(13) 0.0037(11)
Zn2 0.051(3) 0.0568(15) 0.0376(13) -0.0030(11) 0.0202(15) 0.0091(14)
Zn3 0.046(3) 0.0559(15) 0.0392(13) 0.0035(11) 0.0196(15) -0.0058(13)
N1 0.069(9) 0.064(4) 0.041(4) 0.000(3) 0.026(5) 0.010(5)
N2 0.067(9) 0.054(4) 0.037(3) -0.004(3) 0.024(5) -0.004(4)
N3 0.061(7) 0.064(5) 0.050(4) 0.015(4) 0.026(4) 0.005(4)
N4 0.053(6) 0.052(4) 0.043(4) 0.019(3) 0.018(4) 0.008(4)
N5 0.063(7) 0.052(4) 0.038(3) 0.004(3) 0.027(4) 0.017(4)
N6 0.062(8) 0.065(5) 0.036(4) 0.012(3) 0.024(4) 0.024(4)
N7 0.061(8) 0.060(4) 0.045(4) -0.008(3) 0.029(4) -0.009(4)
N8 0.078(8) 0.053(4) 0.043(4) -0.011(3) 0.036(5) -0.016(4)
N9 0.046(6) 0.048(4) 0.051(4) -0.008(3) 0.021(4) 0.001(4)
N10 0.055(7) 0.065(5) 0.047(4) -0.007(3) 0.028(4) 0.013(4)
O1 0.067(9) 0.075(5) 0.059(5) -0.007(4) 0.033(5) 0.000(5)
C1 0.066(8) 0.052(5) 0.052(4) -0.015(4) 0.033(5) -0.010(5)
C2 0.042(6) 0.064(5) 0.045(5) 0.019(4) 0.015(4) 0.007(4)
C3 0.043(6) 0.047(4) 0.049(5) -0.014(3) 0.016(4) 0.000(4)
C4 0.054(9) 0.051(4) 0.040(4) 0.002(3) 0.023(5) 0.000(4)
C5 0.084(8) 0.088(5) 0.039(3) 0.014(3) 0.034(4) 0.042(5)
C6 0.045(7) 0.100(9) 0.088(8) 0.044(7) 0.009(6) 0.000(7)
C7 0.044(8) 0.077(7) 0.105(9) -0.026(6) 0.017(7) -0.013(6)
C8 0.079(10) 0.078(6) 0.029(4) 0.016(4) 0.032(5) 0.016(5)
C9 0.062(9) 0.080(6) 0.046(5) 0.013(4) 0.031(6) 0.019(5)
C10 0.047(9) 0.050(4) 0.053(5) -0.003(4) 0.022(5) -0.001(4)
C11 0.083(10) 0.086(7) 0.032(4) -0.009(4) 0.028(5) -0.027(6)
C12 0.045(6) 0.053(5) 0.051(5) -0.013(4) 0.011(4) -0.002(4)
C13 0.054(9) 0.077(6) 0.047(5) -0.009(4) 0.029(5) -0.009(5)
C14 0.056(8) 0.073(6) 0.063(6) -0.010(4) 0.025(5) 0.005(5)
C15 0.080(12) 0.076(7) 0.047(5) 0.005(5) 0.030(6) -0.013(6)
C16 0.090(12) 0.059(5) 0.044(5) -0.015(4) 0.026(6) -0.003(5)
C17 0.052(7) 0.065(6) 0.082(7) 0.027(5) 0.012(6) -0.010(6)
C18 0.054(8) 0.089(8) 0.089(8) 0.035(6) 0.029(6) -0.002(6)
C19 0.108(14) 0.052(5) 0.062(7) 0.003(4) 0.044(8) 0.015(6)
C20 0.084(8) 0.088(5) 0.039(3) 0.014(3) 0.034(4) 0.042(5)
loop_
_atom_type_symbol
_atom_type_description
_atom_type_scat_dispersion_real
_atom_type_scat_dispersion_imag
_atom_type_scat_source
C C 0.0000 0.0000 'International Tables Vol C Tables 4.2.6.8 and 6.1.1.4'
N N 0.0000 0.0000 'International Tables Vol C Tables 4.2.6.8 and 6.1.1.4'
Zn Zn 0.0000 0.0000 'International Tables Vol C Tables 4.2.6.8 and 6.1.1.4'
O O 0.0000 0.0000 'International Tables Vol C Tables 4.2.6.8 and 6.1.1.4'
loop_
_geom_angle_atom_site_label_1
_geom_angle_atom_site_label_2
_geom_angle_atom_site_label_3
_geom_angle
_geom_angle_site_symmetry_1
_geom_angle_site_symmetry_3
_geom_angle_publ_flag
N7 Zn1 N9 107.8(4) . . ?
N7 Zn1 N4 108.0(3) . . ?
N9 Zn1 N4 108.1(4) . . ?
N7 Zn1 N5 109.6(4) . . ?
N9 Zn1 N5 109.1(3) . . ?
N4 Zn1 N5 114.0(4) . . ?
N10 Zn2 O1 115.5(4) . 4_576 ?
N10 Zn2 N1 111.1(4) . 1_556 ?
O1 Zn2 N1 110.8(4) 4_576 1_556 ?
N10 Zn2 N8 109.7(4) . 2_556 ?
O1 Zn2 N8 99.5(4) 4_576 2_556 ?
N1 Zn2 N8 109.5(4) 1_556 2_556 ?
O1 Zn3 N2 109.0(4) . . ?
O1 Zn3 N6 110.7(4) . 2_656 ?
N2 Zn3 N6 109.5(4) . 2_656 ?
O1 Zn3 N3 111.4(4) . . ?
N2 Zn3 N3 110.6(4) . . ?
N6 Zn3 N3 105.6(4) 2_656 . ?
C4 N1 C16 107.8(7) . . ?
C4 N1 Zn2 128.9(6) . 1_554 ?
C16 N1 Zn2 123.0(6) . 1_554 ?
C4 N2 C10 106.3(7) . . ?
C4 N2 Zn3 128.0(6) . . ?
C10 N2 Zn3 125.7(6) . . ?
C2 N3 C18 105.6(8) . . ?
C2 N3 Zn3 133.5(8) . . ?
C18 N3 Zn3 119.2(7) . . ?
C2 N4 C17 107.1(8) . . ?
C2 N4 Zn1 127.1(8) . . ?
C17 N4 Zn1 125.8(6) . . ?
C5 N5 C9 107.1(8) . . ?
C5 N5 Zn1 126.9(5) . . ?
C9 N5 Zn1 125.5(7) . . ?
C5 N6 C8 105.8(8) . . ?
C5 N6 Zn3 130.0(6) . 2_646 ?
C8 N6 Zn3 124.0(6) . 2_646 ?
C13 N7 C1 104.8(8) . . ?
C13 N7 Zn1 126.6(7) . . ?
C1 N7 Zn1 128.0(6) . . ?
C1 N8 C11 105.7(8) . . ?
C1 N8 Zn2 126.5(6) . 2_546 ?
C11 N8 Zn2 122.2(7) . 2_546 ?
C3 N9 C12 104.4(8) . . ?
C3 N9 Zn1 131.1(8) . . ?
C12 N9 Zn1 124.5(6) . . ?
C3 N10 C14 103.3(8) . . ?
C3 N10 Zn2 132.3(8) . . ?
C14 N10 Zn2 124.3(7) . . ?
Zn3 O1 Zn2 151.7(7) . 4_575 ?
N8 C1 N7 112.1(7) . . ?
N8 C1 C15 125.0(9) . . ?
N7 C1 C15 122.9(8) . . ?
N3 C2 N4 111.8(10) . . ?
N3 C2 C6 122.9(9) . . ?
N4 C2 C6 125.4(9) . . ?
N9 C3 N10 115.6(9) . . ?
N9 C3 C7 123.6(9) . . ?
N10 C3 C7 120.8(9) . . ?
N1 C4 N2 111.1(7) . . ?
N1 C4 C19 124.8(7) . . ?
N2 C4 C19 124.0(7) . . ?
N5 C5 N6 111.8(7) . . ?
N5 C5 C20 126.0(8) . . ?
N6 C5 C20 122.3(9) . . ?
N6 C8 C9 107.8(7) . . ?
N5 C9 C8 107.5(8) . . ?
C16 C10 N2 106.9(7) . . ?
N8 C11 C13 108.3(8) . . ?
N9 C12 C14 107.8(8) . . ?
N7 C13 C11 108.8(8) . . ?
N10 C14 C12 108.9(10) . . ?
N1 C16 C10 107.9(7) . . ?
C18 C17 N4 106.5(10) . . ?
C17 C18 N3 109.0(11) . . ?
loop_
_geom_bond_atom_site_label_1
_geom_bond_atom_site_label_2
_geom_bond_distance
_geom_bond_site_symmetry_2
_geom_bond_publ_flag
Zn1 N7 2.034(9) . ?
Zn1 N9 2.042(9) . ?
Zn1 N4 2.045(8) . ?
Zn1 N5 2.034(9) . ?
Zn2 N10 1.989(8) . ?
Zn2 O1 2.015(10) 4_576 ?
Zn2 N1 2.047(8) 1_556 ?
Zn2 N8 2.050(11) 2_556 ?
Zn3 O1 1.978(11) . ?
Zn3 N2 2.030(8) . ?
Zn3 N6 2.034(10) 2_656 ?
Zn3 N3 2.048(8) . ?
N1 C4 1.338(10) . ?
N1 C16 1.385(11) . ?
N2 C4 1.376(10) . ?
N2 C10 1.405(10) . ?
N3 C2 1.331(12) . ?
N3 C18 1.380(14) . ?
N4 C2 1.365(10) . ?
N4 C17 1.362(13) . ?
N5 C5 1.324(11) . ?
N5 C9 1.364(9) . ?
N6 C5 1.356(10) . ?
N6 C8 1.369(10) . ?
N7 C13 1.371(10) . ?
N7 C1 1.374(12) . ?
N8 C1 1.352(11) . ?
N8 C11 1.373(10) . ?
N9 C3 1.337(10) . ?
N9 C12 1.392(12) . ?
N10 C3 1.360(12) . ?
N10 C14 1.387(13) . ?
C1 C15 1.515(11) . ?
C2 C6 1.489(14) . ?
C3 C7 1.515(13) . ?
C4 C19 1.495(11) . ?
C5 C20 1.503(10) . ?
C8 C9 1.388(13) . ?
C10 C16 1.405(11) . ?
C11 C13 1.388(13) . ?
C12 C14 1.407(11) . ?
C17 C18 1.397(12) . ?
