#------------------------------------------------------------------------------
#$Date: 2019-11-17 05:02:21 +0200 (Sun, 17 Nov 2019) $
#$Revision: 228013 $
#$URL: file:///home/coder/svn-repositories/cod/cif/7/12/16/7121690.cif $
#------------------------------------------------------------------------------
#
# This file is available in the Crystallography Open Database (COD),
# http://www.crystallography.net/
#
# All data on this site have been placed in the public domain by the
# contributors.
#
data_7121690
loop_
_publ_author_name
'Martin, N. P.'
'M\"arz, J'
'Feuchter, H.'
'Duval, S.'
'Roussel, P.'
'Henry, N.'
'Ikeda-Ohno, A'
'Loiseau, T.'
'Volkringer, C.'
_publ_section_title
;
 Synthesis and structural characterization of the first neptunium based
 metal-organic frameworks incorporating {Np<sub>6</sub>O<sub>8</sub>}
 hexanuclear clusters.
;
_journal_issue                   51
_journal_name_full
'Chemical communications (Cambridge, England)'
_journal_page_first              6979
_journal_page_last               6982
_journal_paper_doi               10.1039/c8cc03121e
_journal_volume                  54
_journal_year                    2018
_chemical_formula_moiety         '0.5(C336 O140 Th24)'
_chemical_formula_sum            'C168 O70 Th12'
_chemical_formula_weight         5922.16
_space_group_crystal_system      cubic
_space_group_IT_number           225
_space_group_name_Hall           '-F 4 2 3'
_space_group_name_H-M_alt        'F m -3 m'
_symmetry_space_group_name_Hall  '-F 4 2 3'
_symmetry_space_group_name_H-M   'F m -3 m'
_audit_creation_date             2017-01-27
_audit_creation_method
;
Olex2 1.2
(compiled 2016.09.09 svn.r3337 for OlexSys, GUI svn.r5227)
;
_audit_update_record
;
2018-04-17 deposited with the CCDC.
2018-05-16 downloaded from the CCDC.
;
_cell_angle_alpha                90
_cell_angle_beta                 90
_cell_angle_gamma                90
_cell_formula_units_Z            2
_cell_length_a                   27.9879(11)
_cell_length_b                   27.9879(11)
_cell_length_c                   27.9879(11)
_cell_measurement_reflns_used    1488
_cell_measurement_temperature    296.15
_cell_measurement_theta_max      19.977
_cell_measurement_theta_min      2.413
_cell_volume                     21923.6(15)
_computing_cell_refinement       'SAINT v8.34A (Bruker, 2013)'
_computing_data_reduction        'SAINT v8.34A (Bruker, 2013)'
_computing_molecular_graphics    'Olex2 (Dolomanov et al., 2009)'
_computing_publication_material  'Olex2 (Dolomanov et al., 2009)'
_computing_structure_refinement  'ShelXL (Sheldrick, 2015)'
_diffrn_ambient_temperature      296.15
_diffrn_detector                 'Bruker APEX2 area detector'
_diffrn_detector_area_resol_mean 7.9
_diffrn_detector_type            'CCD area detector'
_diffrn_measured_fraction_theta_full 1.000
_diffrn_measured_fraction_theta_max 1.000
_diffrn_measurement_device       'three-circle diffractometer'
_diffrn_measurement_device_type  'Bruker APEX-II CCD'
_diffrn_measurement_method       '\f and \w scans'
_diffrn_radiation_monochromator  'mirror optics'
_diffrn_radiation_probe          x-ray
_diffrn_radiation_type           MoK\a
_diffrn_radiation_wavelength     0.71073
_diffrn_reflns_av_R_equivalents  0.1213
_diffrn_reflns_av_unetI/netI     0.0577
_diffrn_reflns_Laue_measured_fraction_full 1.000
_diffrn_reflns_Laue_measured_fraction_max 1.000
_diffrn_reflns_limit_h_max       34
_diffrn_reflns_limit_h_min       -12
_diffrn_reflns_limit_k_max       21
_diffrn_reflns_limit_k_min       -31
_diffrn_reflns_limit_l_max       34
_diffrn_reflns_limit_l_min       -11
_diffrn_reflns_number            11372
_diffrn_reflns_point_group_measured_fraction_full 1.000
_diffrn_reflns_point_group_measured_fraction_max 1.000
_diffrn_reflns_theta_full        26.000
_diffrn_reflns_theta_max         26.327
_diffrn_reflns_theta_min         1.260
_diffrn_source                   'microfocus sealed X-ray tube'
_diffrn_source_type              'Incoatec I\ms'
_diffrn_standards_number         0
_exptl_absorpt_coefficient_mu    4.089
_exptl_absorpt_correction_T_max  0.7454
_exptl_absorpt_correction_T_min  0.6241
_exptl_absorpt_correction_type   multi-scan
_exptl_absorpt_process_details
;
SADABS-2014/5 (Bruker,2014/5) was used for absorption correction.
wR2(int) was 0.0791 before and 0.0682 after correction.
The Ratio of minimum to maximum transmission is 0.8373.
The \l/2 correction factor is 0.00150.
;
_exptl_crystal_colour            colourless
_exptl_crystal_colour_primary    colourless
_exptl_crystal_density_diffrn    0.897
_exptl_crystal_description       octahedral
_exptl_crystal_F_000             5296
_exptl_crystal_size_max          0.094
_exptl_crystal_size_mid          0.092
_exptl_crystal_size_min          0.055
_refine_diff_density_max         1.738
_refine_diff_density_min         -1.841
_refine_diff_density_rms         0.331
_refine_ls_extinction_method     none
_refine_ls_goodness_of_fit_ref   1.255
_refine_ls_hydrogen_treatment    undef
_refine_ls_matrix_type           full
_refine_ls_number_parameters     42
_refine_ls_number_reflns         1177
_refine_ls_number_restraints     0
_refine_ls_restrained_S_all      1.255
_refine_ls_R_factor_all          0.0902
_refine_ls_R_factor_gt           0.0623
_refine_ls_shift/su_max          0.000
_refine_ls_shift/su_mean         0.000
_refine_ls_structure_factor_coef Fsqd
_refine_ls_weighting_details
'w=1/[\s^2^(Fo^2^)+(0.1064P)^2^+440.3888P] where P=(Fo^2^+2Fc^2^)/3'
_refine_ls_weighting_scheme      calc
_refine_ls_wR_factor_gt          0.1955
_refine_ls_wR_factor_ref         0.2100
_reflns_Friedel_coverage         0.000
_reflns_number_gt                871
_reflns_number_total             1177
_reflns_threshold_expression     'I > 2\s(I)'
_cod_data_source_file            c8cc03121e2.cif
_cod_data_source_block           1440cubf_a
_cod_depositor_comments
'Adding full bibliography for 7121688--7121693.cif.'
_cod_original_cell_volume        21924(3)
_cod_database_code               7121690
_shelx_space_group_comment
;
The symmetry employed for this shelxl refinement is uniquely defined
by the following loop, which should always be used as a source of
symmetry information in preference to the above space-group names.
They are only intended as comments.
;
_shelx_estimated_absorpt_t_max   0.806
_shelx_estimated_absorpt_t_min   0.700
_olex2_refinement_description
;
1. Others
 Sof(O1B)=0.16667*(1-FVAR(2))
 Sof(O1A)=0.16667*FVAR(2)
 Fixed Sof: C2B(0.25) C3B(0.25) C3A(0.25) C2A(0.25) O1W(0.0625)
;
_shelx_res_file
;
    1440cubf_a.res created by SHELXL-2014/7

TITL 1440CubF_a.res in Fm-3m
REM Old TITL 1440CubF in Fm-3m
REM SHELXT solution in Fm-3m
REM R1 0.117, Rweak 0.010, Alpha 0.092, Orientation as input
REM Formula found by SHELXT: C101 O36 Th6
CELL 0.71073 27.9879 27.9879 27.9879 90 90 90
ZERR 2 0.0011 0.0011 0.0011 0 0 0
LATT 4
SYMM -X,-Y,+Z
SYMM -X,+Y,-Z
SYMM +X,-Y,-Z
SYMM +Z,+X,+Y
SYMM +Z,-X,-Y
SYMM -Z,-X,+Y
SYMM -Z,+X,-Y
SYMM +Y,+Z,+X
SYMM -Y,+Z,-X
SYMM +Y,-Z,-X
SYMM -Y,-Z,+X
SYMM +Y,+X,-Z
SYMM -Y,-X,-Z
SYMM +Y,-X,+Z
SYMM -Y,+X,+Z
SYMM +X,+Z,-Y
SYMM -X,+Z,+Y
SYMM -X,-Z,-Y
SYMM +X,-Z,+Y
SYMM +Z,+Y,-X
SYMM +Z,-Y,+X
SYMM -Z,+Y,+X
SYMM -Z,-Y,-X
SFAC C O Th
UNIT 336 140 24

L.S. 20
PLAN  44
SIZE 0.055 0.092 0.094
TEMP 23
CONN 13 1.85 Th1
BOND $H
LIST 6
MORE -1
CONF
fmap 2
acta 52
REM <olex2.extras>
REM <HklSrc "%.\\1440CubF_a.hkl">
REM </olex2.extras>

WGHT    0.106400  440.388763
FVAR       0.04571   0.45175
TH1   3    0.500000    0.399724    0.500000    10.12500    0.02441    0.01656 =
         0.02441    0.00000    0.00000    0.00000
O2    2    0.419866    0.363183    0.500000    10.50000    0.03556    0.03894 =
         0.09185    0.00000    0.00000   -0.02338
C5    1    0.377584    0.377584    0.500000    10.25000    0.04271    0.04271 =
         0.06039    0.00000    0.00000   -0.02505
C1    1    0.339967    0.339967    0.500000    10.25000    0.03695    0.03695 =
         0.10679    0.00000    0.00000   -0.01495
C4    1    0.269298    0.269298    0.500000    10.25000    0.07597
PART 2
O1B   2    0.553587    0.446413    0.446413   -20.16667    0.02464
C2B   1    0.351280    0.292300    0.500000    10.25000    0.04611
C3B   1    0.316591    0.256619    0.500000    10.25000    0.04229
PART 0
PART 1
O1A   2    0.539839    0.460161    0.460161    20.16667    0.01855
C3A   1    0.311038    0.259821    0.526515    10.25000    0.05503
C2A   1    0.347322    0.299674    0.524364    10.25000    0.05798
PART 0
O1W   2    0.500000    0.304006    0.500000    10.06250    0.05725    0.00263 =
         0.05725    0.00000    0.00000    0.00000
HKLF 4

REM  1440CubF_a.res in Fm-3m
REM R1 =  0.0623 for     871 Fo > 4sig(Fo)  and  0.0902 for all    1177 data
REM     42 parameters refined using      0 restraints

END

WGHT      0.1064    440.8435

REM Highest difference peak  1.738,  deepest hole -1.841,  1-sigma level  0.331
Q1    1   0.6190  0.3810  0.3810  10.16667  0.05    1.74
Q2    1   0.3563  0.1437  0.6282  10.50000  0.05    1.23
Q3    1   0.3663  0.2711  0.6337  10.50000  0.05    1.16
Q4    1   0.2993  0.2007  0.7007  10.16667  0.05    1.12
Q5    1   0.3650  0.1509  0.6350  10.50000  0.05    1.11
Q6    1   0.3808  0.1416  0.6192  10.50000  0.05    1.06
Q7    1   0.3429  0.3429  0.6475  10.50000  0.05    1.00
Q8    1   0.3403  0.1683  0.6508  11.00000  0.05    0.97
Q9    1   0.3370  0.1630  0.6166  10.50000  0.05    0.93
Q10   1   0.3299  0.1701  0.6302  10.50000  0.05    0.91
Q11   1   0.3927  0.1073  0.5984  10.50000  0.05    0.90
Q12   1   0.3337  0.3337  0.6374  10.50000  0.05    0.88
Q13   1   0.3789  0.1988  0.6211  10.50000  0.05    0.87
Q14   1   0.3828  0.1172  0.5906  10.50000  0.05    0.86
Q15   1   0.3543  0.1457  0.5899  10.50000  0.05    0.84
Q16   1   0.3630  0.1566  0.5902  11.00000  0.05    0.84
Q17   1   0.5000  0.2082  0.5000  10.12500  0.05    0.83
Q18   1   0.5000  0.1400  0.4703  10.50000  0.05    0.77
Q19   1   0.2696  0.2696  0.6668  10.50000  0.05    0.76
Q20   1   0.5186  0.2267  0.5000  10.50000  0.05    0.76
Q21   1   0.2942  0.2942  0.7058  10.16667  0.05    0.76
Q22   1   0.3200  0.1800  0.6315  10.50000  0.05    0.75
Q23   1   0.3027  0.3027  0.6318  10.50000  0.05    0.74
Q24   1   0.5000  0.1668  0.5000  10.12500  0.05    0.74
Q25   1   0.4032  0.1392  0.5968  10.50000  0.05    0.74
Q26   1   0.3427  0.1672  0.5669  11.00000  0.05    0.72
Q27   1   0.3784  0.1791  0.6216  10.50000  0.05    0.72
Q28   1   0.3914  0.1866  0.6001  11.00000  0.05    0.71
Q29   1   0.3225  0.1974  0.6678  11.00000  0.05    0.71
Q30   1   0.4111  0.1763  0.5889  10.50000  0.05    0.71
Q31   1   0.3764  0.1423  0.5698  11.00000  0.05    0.71
Q32   1   0.3765  0.1394  0.5285  11.00000  0.05    0.69
Q33   1   0.5517  0.1999  0.5517  10.50000  0.05    0.68
Q34   1   0.4178  0.0822  0.5720  10.50000  0.05    0.62
Q35   1   0.3341  0.2685  0.6659  10.50000  0.05    0.61
Q36   1   0.4526  0.1997  0.5000  10.50000  0.05    0.61
Q37   1   0.2663  0.2663  0.7062  10.50000  0.05    0.60
Q38   1   0.3388  0.2825  0.6612  10.50000  0.05    0.60
Q39   1   0.3983  0.1017  0.5000  10.25000  0.05    0.59
Q40   1   0.5308  0.1209  0.5308  10.50000  0.05    0.58
Q41   1   0.5255  0.1889  0.5255  10.50000  0.05    0.58
Q42   1   0.3928  0.1482  0.5415  11.00000  0.05    0.57
Q43   1   0.3513  0.1862  0.6004  11.00000  0.05    0.57
Q44   1   0.2922  0.2078  0.6399  10.50000  0.05    0.57
;
_shelx_res_checksum              10162
_shelx_shelxl_version_number     2014/7
_olex2_submission_special_instructions 'No special instructions were received'
loop_
_space_group_symop_operation_xyz
'x, y, z'
'-x, -y, z'
'-x, y, -z'
'x, -y, -z'
'z, x, y'
'z, -x, -y'
'-z, -x, y'
'-z, x, -y'
'y, z, x'
'-y, z, -x'
'y, -z, -x'
'-y, -z, x'
'y, x, -z'
'-y, -x, -z'
'y, -x, z'
'-y, x, z'
'x, z, -y'
'-x, z, y'
'-x, -z, -y'
'x, -z, y'
'z, y, -x'
'z, -y, x'
'-z, y, x'
'-z, -y, -x'
'x, y+1/2, z+1/2'
'-x, -y+1/2, z+1/2'
'-x, y+1/2, -z+1/2'
'x, -y+1/2, -z+1/2'
'z, x+1/2, y+1/2'
'z, -x+1/2, -y+1/2'
'-z, -x+1/2, y+1/2'
'-z, x+1/2, -y+1/2'
'y, z+1/2, x+1/2'
'-y, z+1/2, -x+1/2'
'y, -z+1/2, -x+1/2'
'-y, -z+1/2, x+1/2'
'y, x+1/2, -z+1/2'
'-y, -x+1/2, -z+1/2'
'y, -x+1/2, z+1/2'
'-y, x+1/2, z+1/2'
'x, z+1/2, -y+1/2'
'-x, z+1/2, y+1/2'
'-x, -z+1/2, -y+1/2'
'x, -z+1/2, y+1/2'
'z, y+1/2, -x+1/2'
'z, -y+1/2, x+1/2'
'-z, y+1/2, x+1/2'
'-z, -y+1/2, -x+1/2'
'x+1/2, y, z+1/2'
'-x+1/2, -y, z+1/2'
'-x+1/2, y, -z+1/2'
'x+1/2, -y, -z+1/2'
'z+1/2, x, y+1/2'
'z+1/2, -x, -y+1/2'
'-z+1/2, -x, y+1/2'
'-z+1/2, x, -y+1/2'
'y+1/2, z, x+1/2'
'-y+1/2, z, -x+1/2'
'y+1/2, -z, -x+1/2'
'-y+1/2, -z, x+1/2'
'y+1/2, x, -z+1/2'
'-y+1/2, -x, -z+1/2'
'y+1/2, -x, z+1/2'
'-y+1/2, x, z+1/2'
'x+1/2, z, -y+1/2'
'-x+1/2, z, y+1/2'
'-x+1/2, -z, -y+1/2'
'x+1/2, -z, y+1/2'
'z+1/2, y, -x+1/2'
'z+1/2, -y, x+1/2'
'-z+1/2, y, x+1/2'
'-z+1/2, -y, -x+1/2'
'x+1/2, y+1/2, z'
'-x+1/2, -y+1/2, z'
'-x+1/2, y+1/2, -z'
'x+1/2, -y+1/2, -z'
'z+1/2, x+1/2, y'
'z+1/2, -x+1/2, -y'
'-z+1/2, -x+1/2, y'
'-z+1/2, x+1/2, -y'
'y+1/2, z+1/2, x'
'-y+1/2, z+1/2, -x'
'y+1/2, -z+1/2, -x'
'-y+1/2, -z+1/2, x'
'y+1/2, x+1/2, -z'
'-y+1/2, -x+1/2, -z'
'y+1/2, -x+1/2, z'
'-y+1/2, x+1/2, z'
'x+1/2, z+1/2, -y'
'-x+1/2, z+1/2, y'
'-x+1/2, -z+1/2, -y'
'x+1/2, -z+1/2, y'
'z+1/2, y+1/2, -x'
'z+1/2, -y+1/2, x'
'-z+1/2, y+1/2, x'
'-z+1/2, -y+1/2, -x'
'-x, -y, -z'
'x, y, -z'
'x, -y, z'
'-x, y, z'
'-z, -x, -y'
'-z, x, y'
'z, x, -y'
'z, -x, y'
'-y, -z, -x'
'y, -z, x'
'-y, z, x'
'y, z, -x'
'-y, -x, z'
'y, x, z'
'-y, x, -z'
'y, -x, -z'
'-x, -z, y'
'x, -z, -y'
'x, z, y'
'-x, z, -y'
'-z, -y, x'
'-z, y, -x'
'z, -y, -x'
'z, y, x'
'-x, -y+1/2, -z+1/2'
'x, y+1/2, -z+1/2'
'x, -y+1/2, z+1/2'
'-x, y+1/2, z+1/2'
'-z, -x+1/2, -y+1/2'
'-z, x+1/2, y+1/2'
'z, x+1/2, -y+1/2'
'z, -x+1/2, y+1/2'
'-y, -z+1/2, -x+1/2'
'y, -z+1/2, x+1/2'
'-y, z+1/2, x+1/2'
'y, z+1/2, -x+1/2'
'-y, -x+1/2, z+1/2'
'y, x+1/2, z+1/2'
'-y, x+1/2, -z+1/2'
'y, -x+1/2, -z+1/2'
'-x, -z+1/2, y+1/2'
'x, -z+1/2, -y+1/2'
'x, z+1/2, y+1/2'
'-x, z+1/2, -y+1/2'
'-z, -y+1/2, x+1/2'
'-z, y+1/2, -x+1/2'
'z, -y+1/2, -x+1/2'
'z, y+1/2, x+1/2'
'-x+1/2, -y, -z+1/2'
'x+1/2, y, -z+1/2'
'x+1/2, -y, z+1/2'
'-x+1/2, y, z+1/2'
'-z+1/2, -x, -y+1/2'
'-z+1/2, x, y+1/2'
'z+1/2, x, -y+1/2'
'z+1/2, -x, y+1/2'
'-y+1/2, -z, -x+1/2'
'y+1/2, -z, x+1/2'
'-y+1/2, z, x+1/2'
'y+1/2, z, -x+1/2'
'-y+1/2, -x, z+1/2'
'y+1/2, x, z+1/2'
'-y+1/2, x, -z+1/2'
'y+1/2, -x, -z+1/2'
'-x+1/2, -z, y+1/2'
'x+1/2, -z, -y+1/2'
'x+1/2, z, y+1/2'
'-x+1/2, z, -y+1/2'
'-z+1/2, -y, x+1/2'
'-z+1/2, y, -x+1/2'
'z+1/2, -y, -x+1/2'
'z+1/2, y, x+1/2'
'-x+1/2, -y+1/2, -z'
'x+1/2, y+1/2, -z'
'x+1/2, -y+1/2, z'
'-x+1/2, y+1/2, z'
'-z+1/2, -x+1/2, -y'
'-z+1/2, x+1/2, y'
'z+1/2, x+1/2, -y'
'z+1/2, -x+1/2, y'
'-y+1/2, -z+1/2, -x'
'y+1/2, -z+1/2, x'
'-y+1/2, z+1/2, x'
'y+1/2, z+1/2, -x'
'-y+1/2, -x+1/2, z'
'y+1/2, x+1/2, z'
'-y+1/2, x+1/2, -z'
'y+1/2, -x+1/2, -z'
'-x+1/2, -z+1/2, y'
'x+1/2, -z+1/2, -y'
'x+1/2, z+1/2, y'
'-x+1/2, z+1/2, -y'
'-z+1/2, -y+1/2, x'
'-z+1/2, y+1/2, -x'
'z+1/2, -y+1/2, -x'
'z+1/2, y+1/2, x'
loop_
_atom_site_label
_atom_site_type_symbol
_atom_site_fract_x
_atom_site_fract_y
_atom_site_fract_z
_atom_site_U_iso_or_equiv
_atom_site_adp_type
_atom_site_occupancy
_atom_site_site_symmetry_order
_atom_site_calc_flag
_atom_site_refinement_flags_posn
_atom_site_refinement_flags_adp
_atom_site_refinement_flags_occupancy
_atom_site_disorder_assembly
_atom_site_disorder_group
Th1 Th 0.5000 0.39972(3) 0.5000 0.0218(4) Uani 1 8 d S T P . .
O2 O 0.4199(4) 0.3632(4) 0.5000 0.055(4) Uani 1 2 d S T P A .
C5 C 0.3776(6) 0.3776(6) 0.5000 0.049(7) Uani 1 4 d S T P . .
C1 C 0.3400(6) 0.3400(6) 0.5000 0.060(8) Uani 1 4 d S T P A .
C4 C 0.2693(8) 0.2693(8) 0.5000 0.076(9) Uiso 1 4 d S T P . .
O1B O 0.5536(11) 0.4464(11) 0.4464(11) 0.025(11) Uiso 0.55(10) 6 d S T P A 2
C2B C 0.3513(14) 0.2923(14) 0.5000 0.046(9) Uiso 0.5 2 d S T P A 2
C3B C 0.3166(13) 0.2566(13) 0.5000 0.042(8) Uiso 0.5 2 d S T P A 2
O1A O 0.5398(12) 0.4602(12) 0.4602(12) 0.019(13) Uiso 0.45(10) 6 d S T P A 1
C3A C 0.311(2) 0.260(2) 0.5265(19) 0.055(14) Uiso 0.25 1 d . . . A 1
C2A C 0.347(2) 0.300(2) 0.524(2) 0.058(15) Uiso 0.25 1 d . . . A 1
O1W O 0.5000 0.3040(13) 0.5000 0.039(11) Uani 0.5 8 d S T P A .
loop_
_atom_site_aniso_label
_atom_site_aniso_U_11
_atom_site_aniso_U_22
_atom_site_aniso_U_33
_atom_site_aniso_U_23
_atom_site_aniso_U_13
_atom_site_aniso_U_12
Th1 0.0244(5) 0.0166(6) 0.0244(5) 0.000 0.000 0.000
O2 0.036(7) 0.039(7) 0.092(11) 0.000 0.000 -0.023(6)
C5 0.043(10) 0.043(10) 0.060(17) 0.000 0.000 -0.025(13)
C1 0.037(9) 0.037(9) 0.11(3) 0.000 0.000 -0.015(12)
O1W 0.057(18) 0.003(17) 0.057(18) 0.000 0.000 0.000
loop_
_atom_type_symbol
_atom_type_description
_atom_type_scat_dispersion_real
_atom_type_scat_dispersion_imag
_atom_type_scat_source
C C 0.0033 0.0016 'International Tables Vol C Tables 4.2.6.8 and 6.1.1.4'
O O 0.0106 0.0060 'International Tables Vol C Tables 4.2.6.8 and 6.1.1.4'
Th Th -7.2400 8.8979 'International Tables Vol C Tables 4.2.6.8 and 6.1.1.4'
loop_
_geom_angle_atom_site_label_1
_geom_angle_atom_site_label_2
_geom_angle_atom_site_label_3
_geom_angle
_geom_angle_site_symmetry_1
_geom_angle_site_symmetry_3
O2 Th1 O2 80.1(2) . 23_655
O2 Th1 O2 80.1(2) 23_655 3_656
O2 Th1 O2 131.0(6) . 3_656
O2 Th1 O2 80.1(2) . 21_556
O2 Th1 O2 131.0(6) 23_655 21_556
O2 Th1 O2 80.1(2) 21_556 3_656
O2 Th1 O1B 139.94(11) 3_656 100_655
O2 Th1 O1B 70.7(9) 3_656 .
O2 Th1 O1B 70.7(9) 23_655 .
O2 Th1 O1B 139.94(11) 23_655 3_656
O2 Th1 O1B 70.7(9) 23_655 100_655
O2 Th1 O1B 139.94(11) 3_656 3_656
O2 Th1 O1B 70.7(9) . 3_656
O2 Th1 O1B 139.94(11) . 98_556
O2 Th1 O1B 70.7(9) 21_556 3_656
O2 Th1 O1B 139.94(11) 23_655 98_556
O2 Th1 O1B 139.94(11) . .
O2 Th1 O1B 70.7(9) 21_556 98_556
O2 Th1 O1B 139.94(11) 21_556 .
O2 Th1 O1B 70.7(9) 3_656 98_556
O2 Th1 O1B 70.7(9) . 100_655
O2 Th1 O1B 139.94(11) 21_556 100_655
O2 Th1 O1W 65.5(3) . .
O2 Th1 O1W 65.5(3) 3_656 .
O2 Th1 O1W 65.5(3) 21_556 .
O2 Th1 O1W 65.5(3) 23_655 .
O1B Th1 O1B 117(2) 98_556 100_655
O1B Th1 O1B 117(2) 3_656 .
O1B Th1 O1B 74.0(11) 100_655 .
O1B Th1 O1B 74.0(11) 100_655 3_656
O1B Th1 O1B 74.0(11) 98_556 .
O1B Th1 O1B 74.0(11) 98_556 3_656
O1B Th1 O1W 121.6(12) 100_655 .
O1B Th1 O1W 121.6(12) 3_656 .
O1B Th1 O1W 121.6(12) . .
O1B Th1 O1W 121.6(12) 98_556 .
O1A Th1 O2 137.9(5) 3_656 23_655
O1A Th1 O2 82.2(11) 98_556 3_656
O1A Th1 O2 82.2(11) 100_655 .
O1A Th1 O2 82.2(11) 3_656 21_556
O1A Th1 O2 137.9(5) . 21_556
O1A Th1 O2 82.2(11) 100_655 23_655
O1A Th1 O2 82.2(11) . 23_655
O1A Th1 O2 137.9(5) 100_655 3_656
O1A Th1 O2 137.9(5) 3_656 3_656
O1A Th1 O2 137.9(5) . .
O1A Th1 O2 137.9(5) 98_556 23_655
O1A Th1 O2 137.9(5) 98_556 .
O1A Th1 O2 82.2(11) 98_556 21_556
O1A Th1 O2 82.2(11) . 3_656
O1A Th1 O2 82.2(11) 3_656 .
O1A Th1 O2 137.9(5) 100_655 21_556
O1A Th1 O1A 86(3) . 3_656
O1A Th1 O1A 57.7(17) . 100_655
O1A Th1 O1A 86(3) 98_556 100_655
O1A Th1 O1A 57.7(17) 98_556 3_656
O1A Th1 O1A 57.7(17) . 98_556
O1A Th1 O1A 57.7(17) 3_656 100_655
O1A Th1 O1W 137.0(15) 3_656 .
O1A Th1 O1W 137.0(15) 100_655 .
O1A Th1 O1W 137.0(15) . .
O1A Th1 O1W 137.0(15) 98_556 .
C5 O2 Th1 136.7(13) . .
O2 C5 O2 128(2) 13_556 .
O2 C5 C1 116.2(11) 13_556 .
O2 C5 C1 116.2(11) . .
C2B C1 C5 121.6(18) . .
C2B C1 C5 121.6(18) 13_556 .
C2B C1 C2B 117(4) . 13_556
C2A C1 C5 119(3) 98_556 .
C2A C1 C5 119(3) 13_556 .
C2A C1 C5 119(3) . .
C2A C1 C5 119(3) 110 .
C2A C1 C2A 121(6) . 13_556
C2A C1 C2A 121(6) 98_556 110
C2A C1 C2A 90(5) . 110
C2A C1 C2A 61(5) . 98_556
C2A C1 C2A 61(5) 13_556 110
C2A C1 C2A 90(5) 13_556 98_556
C3B C4 C4 120(2) . 169_556
C3B C4 C4 120(2) 13_556 169_556
C3B C4 C3B 120(4) 13_556 .
C3A C4 C4 117(3) 110 169_556
C3A C4 C4 117(3) 13_556 169_556
C3A C4 C4 117(3) 98_556 169_556
C3A C4 C4 117(3) . 169_556
C3A C4 C3A 92(5) . 110
C3A C4 C3A 64(5) 110 13_556
C3A C4 C3A 92(5) 98_556 13_556
C3A C4 C3A 64(5) . 98_556
C3A C4 C3A 126(6) 110 98_556
C3A C4 C3A 126(6) . 13_556
Th1 O1B Th1 105.6(13) . 105_666
Th1 O1B Th1 105.6(13) 105_666 5
Th1 O1B Th1 105.6(13) . 5
C1 C2B C3B 122(3) . .
C4 C3B C2B 119(3) . .
Th1 O1A Th1 118.2(7) 5 105_666
Th1 O1A Th1 118.2(7) . 5
Th1 O1A Th1 118.2(7) . 105_666
C4 C3A C3A 58(2) . 98_556
C4 C3A C3A 44(2) . 110
C4 C3A C2A 113(5) . .
C3A C3A C3A 90.004(5) 98_556 110
C3A C3A C2A 88(3) 98_556 .
C2A C3A C3A 87(3) . 110
C1 C2A C3A 123(5) . .
C1 C2A C2A 45(3) . 110
C1 C2A C2A 59(2) . 98_556
C3A C2A C2A 93(3) . 110
C2A C2A C3A 92(3) 98_556 .
C2A C2A C2A 90.003(4) 98_556 110
loop_
_geom_bond_atom_site_label_1
_geom_bond_atom_site_label_2
_geom_bond_distance
_geom_bond_site_symmetry_2
Th1 O2 2.465(11) .
Th1 O2 2.465(11) 21_556
Th1 O2 2.465(11) 23_655
Th1 O2 2.465(11) 3_656
Th1 O1B 2.49(2) 98_556
Th1 O1B 2.49(2) .
Th1 O1B 2.49(2) 100_655
Th1 O1B 2.49(2) 3_656
Th1 O1A 2.313(8) .
Th1 O1A 2.313(8) 100_655
Th1 O1A 2.313(8) 98_556
Th1 O1A 2.313(8) 3_656
Th1 O1W 2.68(4) .
O2 C5 1.250(16) .
C5 O2 1.250(16) 13_556
C5 C1 1.49(3) .
C1 C2B 1.37(4) 13_556
C1 C2B 1.37(4) .
C1 C2A 1.33(6) 98_556
C1 C2A 1.33(6) .
C1 C2A 1.33(6) 13_556
C1 C2A 1.33(6) 110
C4 C4 1.53(6) 169_556
C4 C3B 1.37(4) 13_556
C4 C3B 1.37(4) .
C4 C3A 1.41(6) 13_556
C4 C3A 1.41(6) 98_556
C4 C3A 1.41(6) .
C4 C3A 1.41(6) 110
O1B Th1 2.49(2) 105_666
O1B Th1 2.49(2) 5
C2B C3B 1.39(5) .
O1A Th1 2.313(8) 105_666
O1A Th1 2.313(8) 5
C3A C3A 2.03(11) 110
C3A C3A 1.48(11) 98_556
C3A C2A 1.51(9) .
C2A C2A 1.89(12) 110
C2A C2A 1.36(12) 98_556
loop_
_geom_torsion_atom_site_label_1
_geom_torsion_atom_site_label_2
_geom_torsion_atom_site_label_3
_geom_torsion_atom_site_label_4
_geom_torsion
_geom_torsion_site_symmetry_1
_geom_torsion_site_symmetry_4
Th1 O2 C5 O2 0.0 . 13_556
Th1 O2 C5 C1 180.0 . .
O2 C5 C1 C2B 180.0 . 13_556
O2 C5 C1 C2B 0.0 13_556 13_556
O2 C5 C1 C2B 0.0 . .
O2 C5 C1 C2B 180.0 13_556 .
O2 C5 C1 C2A 144(3) . 110
O2 C5 C1 C2A -144(3) 13_556 .
O2 C5 C1 C2A -36(3) . 98_556
O2 C5 C1 C2A 36(3) 13_556 13_556
O2 C5 C1 C2A 36(3) . .
O2 C5 C1 C2A -144(3) . 13_556
O2 C5 C1 C2A 144(3) 13_556 98_556
O2 C5 C1 C2A -36(3) 13_556 110
C5 C1 C2B C3B 180.0 . .
C5 C1 C2A C3A 180(4) . .
C5 C1 C2A C2A 124(4) . 110
C5 C1 C2A C2A -109(3) . 98_556
C1 C2B C3B C4 0.0 . .
C4 C4 C3B C2B 180.0 169_556 .
C4 C4 C3A C3A -122(3) 169_556 110
C4 C4 C3A C3A 108(2) 169_556 98_556
C4 C4 C3A C2A 180(3) 169_556 .
C4 C3A C2A C1 1(7) . .
C4 C3A C2A C2A -54(4) . 98_556
C4 C3A C2A C2A 36(4) . 110
C2B C1 C2B C3B 0.0 13_556 .
C3B C4 C3B C2B 0.0 13_556 .
C3A C4 C3A C3A 58(3) 13_556 110
C3A C4 C3A C3A 130(4) 98_556 110
C3A C4 C3A C3A -130(4) 110 98_556
C3A C4 C3A C3A -72(2) 13_556 98_556
C3A C4 C3A C2A -59(6) 110 .
C3A C4 C3A C2A 0(3) 13_556 .
C3A C4 C3A C2A 71(5) 98_556 .
C3A C3A C2A C1 54(4) 98_556 .
C3A C3A C2A C1 -36(4) 110 .
C3A C3A C2A C2A -0.001(1) 110 110
C3A C3A C2A C2A -90.1(2) 110 98_556
C3A C3A C2A C2A 90.1(2) 98_556 110
C3A C3A C2A C2A 0.000(9) 98_556 98_556
C2A C1 C2A C3A -71(6) 98_556 .
C2A C1 C2A C3A 56(7) 110 .
C2A C1 C2A C3A 0(4) 13_556 .
C2A C1 C2A C2A 71(3) 13_556 98_556
C2A C1 C2A C2A -56(4) 13_556 110
C2A C1 C2A C2A -126(4) 98_556 110
C2A C1 C2A C2A 126(4) 110 98_556
